    1    1    1    1
  0.1814474E+02  0.2949546E-09  0.2949546E-09  0.2949546E-09  0.5000000E-15
  1.000000000000000E-004
  CAR 
 Au                                      
     11    120     24
 
  0.0000000E+00  0.0000000E+00  0.0000000E+00  0.2962963E-03
    1       -0.750604   1.000000
    2       -0.750604   1.000000
    3        3.436615   1.000000
    4        3.436615   1.000000
    5        3.436615   1.000000
    6        3.436615   1.000000
    7        4.641483   1.000000
    8        4.641483   1.000000
    9        5.704349   1.000000
   10        5.704349   1.000000
   11        5.704349   1.000000
   12        5.704349   1.000000
   13       23.052606   0.000000
   14       23.052606   0.000000
   15       25.804354   0.000000
   16       25.804354   0.000000
   17       26.976176   0.000000
   18       26.976176   0.000000
   19       26.976176   0.000000
   20       26.976176   0.000000
   21       31.409226   0.000000
   22       31.409226   0.000000
   23       34.295624   0.000000
   24       34.295624   0.000000
 
  0.6666667E-01  0.0000000E+00  0.0000000E+00  0.2370370E-02
    1       -0.604923   1.000000
    2       -0.604923   1.000000
    3        3.439445   1.000000
    4        3.439445   1.000000
    5        3.456899   1.000000
    6        3.456899   1.000000
    7        4.662507   1.000000
    8        4.662507   1.000000
    9        5.660567   1.000000
   10        5.660567   1.000000
   11        5.714766   1.000000
   12        5.714766   1.000000
   13       23.203205   0.000000
   14       23.203205   0.000000
   15       25.318464   0.000000
   16       25.318464   0.000000
   17       26.618592   0.000000
   18       26.618592   0.000000
   19       27.132833   0.000000
   20       27.132833   0.000000
   21       31.888392   0.000000
   22       31.888392   0.000000
   23       33.361410   0.000000
   24       33.361410   0.000000
 
  0.1333333E+00  0.0000000E+00  0.0000000E+00  0.2370370E-02
    1       -0.185085   1.000000
    2       -0.185085   1.000000
    3        3.440840   1.000000
    4        3.440840   1.000000
    5        3.500396   1.000000
    6        3.500396   1.000000
    7        4.746532   1.000000
    8        4.746532   1.000000
    9        5.549967   1.000000
   10        5.549967   1.000000
   11        5.765208   1.000000
   12        5.765208   1.000000
   13       23.085081   0.000000
   14       23.085081   0.000000
   15       24.022963   0.000000
   16       24.022963   0.000000
   17       26.750581   0.000000
   18       26.750581   0.000000
   19       27.559355   0.000000
   20       27.559355   0.000000
   21       30.664624   0.000000
   22       30.664624   0.000000
   23       32.855014   0.000000
   24       32.855014   0.000000
 
  0.2000000E+00  0.0000000E+00  0.0000000E+00  0.2370370E-02
    1        0.439589   1.000000
    2        0.439589   1.000000
    3        3.476635   1.000000
    4        3.476635   1.000000
    5        3.526891   1.000000
    6        3.526891   1.000000
    7        4.879595   1.000000
    8        4.879595   1.000000
    9        5.458931   1.000000
   10        5.458931   1.000000
   11        5.897301   1.000000
   12        5.897301   1.000000
   13       20.958624   0.000000
   14       20.958624   0.000000
   15       24.116012   0.000000
   16       24.116012   0.000000
   17       26.947353   0.000000
   18       26.947353   0.000000
   19       28.077623   0.000000
   20       28.077623   0.000000
   21       29.761342   0.000000
   22       29.761342   0.000000
   23       31.399317   0.000000
   24       31.399317   0.000000
 
  0.2666667E+00  0.0000000E+00  0.0000000E+00  0.2370370E-02
    1        1.084615   1.000000
    2        1.084615   1.000000
    3        3.507403   1.000000
    4        3.507403   1.000000
    5        3.731811   1.000000
    6        3.731811   1.000000
    7        4.885567   1.000000
    8        4.885567   1.000000
    9        5.593086   1.000000
   10        5.593086   1.000000
   11        6.131178   1.000000
   12        6.131178   1.000000
   13       18.434418   0.000000
   14       18.434418   0.000000
   15       23.861864   0.000000
   16       23.861864   0.000000
   17       26.674752   0.000000
   18       26.674752   0.000000
   19       28.138205   0.000000
   20       28.138205   0.000000
   21       29.964581   0.000000
   22       29.964581   0.000000
   23       30.901531   0.000000
   24       30.901562   0.000000
 
  0.3333333E+00  0.0000000E+00  0.0000000E+00  0.2370370E-02
    1        1.471748   1.000000
    2        1.471748   1.000000
    3        3.449948   1.000000
    4        3.449948   1.000000
    5        4.444156   1.000000
    6        4.444156   1.000000
    7        4.800510   1.000000
    8        4.800510   1.000000
    9        5.944929   1.000000
   10        5.944929   1.000000
   11        6.429923   1.000000
   12        6.429923   1.000000
   13       15.870974   0.000000
   14       15.870974   0.000000
   15       23.283833   0.000000
   16       23.283833   0.000000
   17       25.808099   0.000000
   18       25.808099   0.000000
   19       27.322717   0.000000
   20       27.322717   0.000000
   21       31.008803   0.000000
   22       31.008803   0.000000
   23       31.230486   0.000000
   24       31.230499   0.000000
 
  0.4000000E+00  0.0000000E+00  0.0000000E+00  0.2370370E-02
    1        1.582726   1.000000
    2        1.582726   1.000000
    3        3.386226   1.000000
    4        3.386226   1.000000
    5        4.591207   1.000000
    6        4.591207   1.000000
    7        5.629487   1.000000
    8        5.629487   1.000000
    9        6.454801   1.000000
   10        6.454801   1.000000
   11        6.710416   1.000000
   12        6.710416   1.000000
   13       13.462204   0.000000
   14       13.462204   0.000000
   15       22.776410   0.000000
   16       22.776410   0.000000
   17       24.915414   0.000000
   18       24.915414   0.000000
   19       26.405071   0.000000
   20       26.405071   0.000000
   21       31.779886   0.000000
   22       31.779886   0.000000
   23       32.121334   0.000000
   24       32.121334   0.000000
 
  0.4666667E+00  0.0000000E+00  0.0000000E+00  0.2370370E-02
    1        1.592631   1.000000
    2        1.592631   1.000000
    3        3.346253   1.000000
    4        3.346253   1.000000
    5        4.526572   1.000000
    6        4.526572   1.000000
    7        6.162133   1.000000
    8        6.162133   1.000000
    9        6.880929   1.000000
   10        6.880929   1.000000
   11        7.445259   1.000000
   12        7.445259   1.000000
   13       11.591225   0.000000
   14       11.591225   0.000000
   15       22.500465   0.000000
   16       22.500465   0.000000
   17       24.395408   0.000000
   18       24.395408   0.000000
   19       25.871394   0.000000
   20       25.871394   0.000000
   21       32.136070   0.000000
   22       32.136070   0.000000
   23       32.638949   0.000000
   24       32.638949   0.000000
 
  0.6666667E-01  0.6666667E-01  0.0000000E+00  0.1777778E-02
    1       -0.556063   1.000000
    2       -0.556063   1.000000
    3        3.409643   1.000000
    4        3.409643   1.000000
    5        3.492407   1.000000
    6        3.492407   1.000000
    7        4.670473   1.000000
    8        4.670473   1.000000
    9        5.629565   1.000000
   10        5.629565   1.000000
   11        5.735623   1.000000
   12        5.735623   1.000000
   13       23.269092   0.000000
   14       23.269092   0.000000
   15       25.438406   0.000000
   16       25.438406   0.000000
   17       26.422389   0.000000
   18       26.422389   0.000000
   19       26.850532   0.000000
   20       26.850532   0.000000
   21       32.330370   0.000000
   22       32.330370   0.000000
   23       33.122657   0.000000
   24       33.122657   0.000000
 
  0.1333333E+00  0.6666667E-01  0.0000000E+00  0.7111111E-02
    1       -0.225879   1.000000
    2       -0.225879   1.000000
    3        3.379074   1.000000
    4        3.379074   1.000000
    5        3.552111   1.000000
    6        3.552111   1.000000
    7        4.738172   1.000000
    8        4.738172   1.000000
    9        5.534639   1.000000
   10        5.534639   1.000000
   11        5.782468   1.000000
   12        5.782468   1.000000
   13       23.477391   0.000000
   14       23.477391   0.000000
   15       24.320234   0.000000
   16       24.320234   0.000000
   17       26.127821   0.000000
   18       26.127821   0.000000
   19       27.166438   0.000000
   20       27.166438   0.000000
   21       31.141640   0.000000
   22       31.141640   0.000000
   23       32.941688   0.000000
   24       32.941688   0.000000
 
  0.2000000E+00  0.6666667E-01  0.0000000E+00  0.7111111E-02
    1        0.339533   1.000000
    2        0.339533   1.000000
    3        3.356717   1.000000
    4        3.356717   1.000000
    5        3.601062   1.000000
    6        3.601062   1.000000
    7        4.874384   1.000000
    8        4.874384   1.000000
    9        5.430719   1.000000
   10        5.430719   1.000000
   11        5.897847   1.000000
   12        5.897847   1.000000
   13       21.833980   0.000000
   14       21.833980   0.000000
   15       24.145303   0.000000
   16       24.145303   0.000000
   17       26.024509   0.000000
   18       26.024509   0.000000
   19       27.901838   0.000000
   20       27.901838   0.000000
   21       29.648316   0.000000
   22       29.648316   0.000000
   23       31.977384   0.000000
   24       31.977384   0.000000
 
  0.2666667E+00  0.6666667E-01  0.0000000E+00  0.7111111E-02
    1        1.005875   1.000000
    2        1.005875   1.000000
    3        3.419787   1.000000
    4        3.419787   1.000000
    5        3.641769   1.000000
    6        3.641769   1.000000
    7        4.932926   1.000000
    8        4.932926   1.000000
    9        5.507483   1.000000
   10        5.507483   1.000000
   11        6.121826   1.000000
   12        6.121826   1.000000
   13       19.360257   0.000000
   14       19.360257   0.000000
   15       24.060108   0.000000
   16       24.060108   0.000000
   17       25.750122   0.000000
   18       25.750122   0.000000
   19       28.218752   0.000000
   20       28.218752   0.000000
   21       29.278922   0.000000
   22       29.278922   0.000000
   23       31.518049   0.000000
   24       31.518050   0.000000
 
  0.3333333E+00  0.6666667E-01  0.0000000E+00  0.7111111E-02
    1        1.496543   1.000000
    2        1.496543   1.000000
    3        3.467994   1.000000
    4        3.467994   1.000000
    5        4.023246   1.000000
    6        4.023246   1.000000
    7        4.828747   1.000000
    8        4.828747   1.000000
    9        5.868658   1.000000
   10        5.868658   1.000000
   11        6.445907   1.000000
   12        6.445907   1.000000
   13       16.781558   0.000000
   14       16.781558   0.000000
   15       23.546243   0.000000
   16       23.546243   0.000000
   17       25.187236   0.000000
   18       25.187236   0.000000
   19       27.275737   0.000000
   20       27.275737   0.000000
   21       30.479547   0.000000
   22       30.479547   0.000000
   23       31.604021   0.000000
   24       31.604021   0.000000
 
  0.4000000E+00  0.6666667E-01  0.0000000E+00  0.7111111E-02
    1        1.670996   1.000000
    2        1.670996   1.000000
    3        3.411415   1.000000
    4        3.411415   1.000000
    5        4.581220   1.000000
    6        4.581220   1.000000
    7        5.012495   1.000000
    8        5.012495   1.000000
    9        6.326193   1.000000
   10        6.326193   1.000000
   11        6.901251   1.000000
   12        6.901251   1.000000
   13       14.290711   0.000000
   14       14.290711   0.000000
   15       23.001068   0.000000
   16       23.001068   0.000000
   17       24.532313   0.000000
   18       24.532313   0.000000
   19       26.205770   0.000000
   20       26.205770   0.000000
   21       31.799698   0.000000
   22       31.799698   0.000000
   23       32.078215   0.000000
   24       32.078215   0.000000
 
  0.4666667E+00  0.6666667E-01  0.0000000E+00  0.7111111E-02
    1        1.694025   1.000000
    2        1.694025   1.000000
    3        3.360388   1.000000
    4        3.360388   1.000000
    5        4.537185   1.000000
    6        4.537185   1.000000
    7        5.700564   1.000000
    8        5.700564   1.000000
    9        6.623636   1.000000
   10        6.623636   1.000000
   11        7.769614   1.045716
   12        7.769614   1.045716
   13       12.133567   0.000000
   14       12.133567   0.000000
   15       22.640006   0.000000
   16       22.640006   0.000000
   17       24.053520   0.000000
   18       24.053520   0.000000
   19       25.489620   0.000000
   20       25.489620   0.000000
   21       32.240574   0.000000
   22       32.240574   0.000000
   23       32.757338   0.000000
   24       32.757338   0.000000
 
 -0.4666667E+00  0.6666667E-01  0.0000000E+00  0.7111111E-02
    1        1.693541   1.000000
    2        1.693541   1.000000
    3        3.346086   1.000000
    4        3.346086   1.000000
    5        4.516225   1.000000
    6        4.516225   1.000000
    7        5.911211   1.000000
    8        5.911211   1.000000
    9        6.646930   1.000000
   10        6.646930   1.000000
   11        8.330685   0.823732
   12        8.330685   0.823732
   13       11.287751   0.000000
   14       11.287751   0.000000
   15       22.527154   0.000000
   16       22.527154   0.000000
   17       23.872512   0.000000
   18       23.872512   0.000000
   19       25.395542   0.000000
   20       25.395542   0.000000
   21       32.318893   0.000000
   22       32.318893   0.000000
   23       32.790021   0.000000
   24       32.790021   0.000000
 
 -0.4000000E+00  0.6666667E-01  0.0000000E+00  0.7111111E-02
    1        1.696187   1.000000
    2        1.696187   1.000000
    3        3.374293   1.000000
    4        3.374293   1.000000
    5        4.560914   1.000000
    6        4.560914   1.000000
    7        5.572338   1.000000
    8        5.572338   1.000000
    9        6.415639   1.000000
   10        6.415639   1.000000
   11        7.492056   1.064076
   12        7.492056   1.064076
   13       12.801718   0.000000
   14       12.801718   0.000000
   15       22.669754   0.000000
   16       22.669754   0.000000
   17       24.053026   0.000000
   18       24.053026   0.000000
   19       25.978651   0.000000
   20       25.978651   0.000000
   21       31.808861   0.000000
   22       31.808861   0.000000
   23       32.434983   0.000000
   24       32.434983   0.000000
 
 -0.3333333E+00  0.6666667E-01  0.0000000E+00  0.7111111E-02
    1        1.644743   1.000000
    2        1.644743   1.000000
    3        3.431246   1.000000
    4        3.431246   1.000000
    5        4.544354   1.000000
    6        4.544354   1.000000
    7        4.816902   1.000000
    8        4.816902   1.000000
    9        6.024479   1.000000
   10        6.024479   1.000000
   11        6.824241   1.000000
   12        6.824241   1.000000
   13       15.111155   0.000000
   14       15.111155   0.000000
   15       23.033791   0.000000
   16       23.033791   0.000000
   17       24.603606   0.000000
   18       24.603606   0.000000
   19       27.126953   0.000000
   20       27.126953   0.000000
   21       30.635380   0.000000
   22       30.635380   0.000000
   23       31.786847   0.000000
   24       31.786847   0.000000
 
 -0.2666667E+00  0.6666667E-01  0.0000000E+00  0.7111111E-02
    1        1.374015   1.000000
    2        1.374015   1.000000
    3        3.474750   1.000000
    4        3.474750   1.000000
    5        3.844220   1.000000
    6        3.844220   1.000000
    7        4.863334   1.000000
    8        4.863334   1.000000
    9        5.639864   1.000000
   10        5.639864   1.000000
   11        6.393058   1.000000
   12        6.393058   1.000000
   13       17.643204   0.000000
   14       17.643204   0.000000
   15       23.510762   0.000000
   16       23.510762   0.000000
   17       25.406879   0.000000
   18       25.406879   0.000000
   19       28.578217   0.000000
   20       28.578217   0.000000
   21       29.367854   0.000000
   22       29.367854   0.000000
   23       30.888877   0.000000
   24       30.888877   0.000000
 
 -0.2000000E+00  0.6666667E-01  0.0000000E+00  0.7111111E-02
    1        0.787874   1.000000
    2        0.787874   1.000000
    3        3.406667   1.000000
    4        3.406667   1.000000
    5        3.606725   1.000000
    6        3.606725   1.000000
    7        4.936854   1.000000
    8        4.936854   1.000000
    9        5.404269   1.000000
   10        5.404269   1.000000
   11        6.065760   1.000000
   12        6.065760   1.000000
   13       20.194273   0.000000
   14       20.194273   0.000000
   15       23.867932   0.000000
   16       23.867932   0.000000
   17       26.081542   0.000000
   18       26.081542   0.000000
   19       28.489096   0.000000
   20       28.489096   0.000000
   21       29.410839   0.000000
   22       29.410839   0.000000
   23       31.003083   0.000000
   24       31.003083   0.000000
 
 -0.1333333E+00  0.6666667E-01  0.0000000E+00  0.7111111E-02
    1        0.129175   1.000000
    2        0.129175   1.000000
    3        3.386920   1.000000
    4        3.386920   1.000000
    5        3.564405   1.000000
    6        3.564405   1.000000
    7        4.822157   1.000000
    8        4.822157   1.000000
    9        5.453448   1.000000
   10        5.453448   1.000000
   11        5.855302   1.000000
   12        5.855302   1.000000
   13       22.535389   0.000000
   14       22.535389   0.000000
   15       23.868776   0.000000
   16       23.868776   0.000000
   17       26.097874   0.000000
   18       26.097874   0.000000
   19       28.303229   0.000000
   20       28.303229   0.000000
   21       29.538361   0.000000
   22       29.538361   0.000000
   23       32.628162   0.000000
   24       32.628162   0.000000
 
 -0.6666667E-01  0.6666667E-01  0.0000000E+00  0.3555556E-02
    1       -0.366801   1.000000
    2       -0.366801   1.000000
    3        3.415962   1.000000
    4        3.415962   1.000000
    5        3.506639   1.000000
    6        3.506639   1.000000
    7        4.706770   1.000000
    8        4.706770   1.000000
    9        5.581427   1.000000
   10        5.581427   1.000000
   11        5.752838   1.000000
   12        5.752838   1.000000
   13       23.401021   0.000000
   14       23.401021   0.000000
   15       24.531378   0.000000
   16       24.531378   0.000000
   17       26.207274   0.000000
   18       26.207274   0.000000
   19       27.518996   0.000000
   20       27.518996   0.000000
   21       31.160009   0.000000
   22       31.160009   0.000000
   23       33.472429   0.000000
   24       33.472429   0.000000
 
  0.1333333E+00  0.1333333E+00  0.0000000E+00  0.1777778E-02
    1        0.008419   1.000000
    2        0.008419   1.000000
    3        3.292524   1.000000
    4        3.292524   1.000000
    5        3.638692   1.000000
    6        3.638692   1.000000
    7        4.798646   1.000000
    8        4.798646   1.000000
    9        5.459625   1.000000
   10        5.459625   1.000000
   11        5.839840   1.000000
   12        5.839840   1.000000
   13       23.868466   0.000000
   14       23.868466   0.000000
   15       24.540373   0.000000
   16       24.540373   0.000000
   17       25.325600   0.000000
   18       25.325600   0.000000
   19       26.216707   0.000000
   20       26.216707   0.000000
   21       30.866940   0.000000
   22       30.866940   0.000000
   23       32.754798   0.000000
   24       32.754798   0.000000
 
  0.2000000E+00  0.1333333E+00  0.0000000E+00  0.7111111E-02
    1        0.488104   1.000000
    2        0.488104   1.000000
    3        3.204719   1.000000
    4        3.204719   1.000000
    5        3.709133   1.000000
    6        3.709133   1.000000
    7        4.938631   1.000000
    8        4.938631   1.000000
    9        5.383413   1.000000
   10        5.383413   1.000000
   11        5.948260   1.000000
   12        5.948260   1.000000
   13       22.806532   0.000000
   14       22.806532   0.000000
   15       24.346493   0.000000
   16       24.346493   0.000000
   17       24.906539   0.000000
   18       24.906539   0.000000
   19       26.425039   0.000000
   20       26.425039   0.000000
   21       29.272785   0.000000
   22       29.272785   0.000000
   23       32.426162   0.000000
   24       32.426162   0.000000
 
  0.2666667E+00  0.1333333E+00  0.0000000E+00  0.7111111E-02
    1        1.123069   1.000000
    2        1.123069   1.000000
    3        3.166867   1.000000
    4        3.166867   1.000000
    5        3.720610   1.000000
    6        3.720610   1.000000
    7        5.047972   1.000000
    8        5.047972   1.000000
    9        5.463889   1.000000
   10        5.463889   1.000000
   11        6.166854   1.000000
   12        6.166854   1.000000
   13       20.398731   0.000000
   14       20.398731   0.000000
   15       24.236461   0.000000
   16       24.236461   0.000000
   17       24.551261   0.000000
   18       24.551261   0.000000
   19       26.673747   0.000000
   20       26.673747   0.000000
   21       28.807279   0.000000
   22       28.807279   0.000000
   23       32.310047   0.000000
   24       32.310047   0.000000
 
  0.3333333E+00  0.1333333E+00  0.0000000E+00  0.7111111E-02
    1        1.682782   1.000000
    2        1.682782   1.000000
    3        3.310145   1.000000
    4        3.310145   1.000000
    5        3.717690   1.000000
    6        3.717690   1.000000
    7        4.969547   1.000000
    8        4.969547   1.000000
    9        5.880535   1.000000
   10        5.880535   1.000000
   11        6.522026   1.000000
   12        6.522026   1.000000
   13       17.808078   0.000000
   14       17.808078   0.000000
   15       23.622724   0.000000
   16       23.622724   0.000000
   17       24.164734   0.000000
   18       24.164734   0.000000
   19       26.008592   0.000000
   20       26.008592   0.000000
   21       30.154782   0.000000
   22       30.154782   0.000000
   23       32.316687   0.000000
   24       32.316687   0.000000
 
  0.4000000E+00  0.1333333E+00  0.0000000E+00  0.7111111E-02
    1        1.920344   1.000000
    2        1.920344   1.000000
    3        3.414154   1.000000
    4        3.414154   1.000000
    5        4.076589   1.000000
    6        4.076589   1.000000
    7        4.886490   1.000000
    8        4.886490   1.000000
    9        6.352804   1.000000
   10        6.352804   1.000000
   11        7.134057   1.000000
   12        7.134057   1.000000
   13       15.257293   0.000000
   14       15.257293   0.000000
   15       22.973558   0.000000
   16       22.973558   0.000000
   17       23.710925   0.000000
   18       23.710925   0.000000
   19       25.185705   0.000000
   20       25.185705   0.000000
   21       32.131713   0.000000
   22       32.131713   0.000000
   23       32.464726   0.000000
   24       32.464726   0.000000
 
  0.4666667E+00  0.1333333E+00  0.0000000E+00  0.7111111E-02
    1        1.959950   1.000000
    2        1.959950   1.000000
    3        3.361193   1.000000
    4        3.361193   1.000000
    5        4.471433   1.000000
    6        4.471433   1.000000
    7        5.039234   1.000000
    8        5.039234   1.000000
    9        6.584884   1.000000
   10        6.584884   1.000000
   11        8.220923   0.764629
   12        8.220923   0.764629
   13       12.919170   0.000000
   14       12.919170   0.000000
   15       22.370607   0.000000
   16       22.370607   0.000000
   17       23.486643   0.000000
   18       23.486643   0.000000
   19       24.532212   0.000000
   20       24.532212   0.000000
   21       32.601758   0.000000
   22       32.601758   0.000000
   23       33.276227   0.000000
   24       33.276227   0.000000
 
 -0.4666667E+00  0.1333333E+00  0.0000000E+00  0.7111111E-02
    1        1.966399   1.000000
    2        1.966399   1.000000
    3        3.329492   1.000000
    4        3.329492   1.000000
    5        4.523082   1.000000
    6        4.523082   1.000000
    7        5.321118   1.000000
    8        5.321118   1.000000
    9        6.568167   1.000000
   10        6.568167   1.000000
   11        9.410928  -0.065402
   12        9.410928  -0.065402
   13       11.268593   0.000000
   14       11.268593   0.000000
   15       21.878379   0.000000
   16       21.878379   0.000000
   17       23.475585   0.000000
   18       23.475585   0.000000
   19       24.454455   0.000000
   20       24.454455   0.000000
   21       32.660263   0.000000
   22       32.660263   0.000000
   23       33.027841   0.000000
   24       33.027841   0.000000
 
 -0.4000000E+00  0.1333333E+00  0.0000000E+00  0.7111111E-02
    1        1.986683   1.000000
    2        1.986683   1.000000
    3        3.345282   1.000000
    4        3.345282   1.000000
    5        4.552230   1.000000
    6        4.552230   1.000000
    7        5.213878   1.000000
    8        5.213878   1.000000
    9        6.351366   1.000000
   10        6.351366   1.000000
   11        8.701564   0.296229
   12        8.701564   0.296229
   13       12.341914   0.000000
   14       12.341914   0.000000
   15       21.601580   0.000000
   16       21.601580   0.000000
   17       23.600397   0.000000
   18       23.600397   0.000000
   19       25.158289   0.000000
   20       25.158289   0.000000
   21       31.915322   0.000000
   22       31.915322   0.000000
   23       32.869717   0.000000
   24       32.869717   0.000000
 
 -0.3333333E+00  0.1333333E+00  0.0000000E+00  0.7111111E-02
    1        1.992686   1.000000
    2        1.992686   1.000000
    3        3.393214   1.000000
    4        3.393214   1.000000
    5        4.472499   1.000000
    6        4.472499   1.000000
    7        4.787252   1.000000
    8        4.787252   1.000000
    9        6.002755   1.000000
   10        6.002755   1.000000
   11        7.679615   1.071392
   12        7.679615   1.071392
   13       14.548744   0.000000
   14       14.548744   0.000000
   15       21.609865   0.000000
   16       21.609865   0.000000
   17       24.009940   0.000000
   18       24.009940   0.000000
   19       26.445104   0.000000
   20       26.445104   0.000000
   21       30.525196   0.000000
   22       30.525196   0.000000
   23       32.672638   0.000000
   24       32.672638   0.000000
 
 -0.2666667E+00  0.1333333E+00  0.0000000E+00  0.7111111E-02
    1        1.846319   1.000000
    2        1.846319   1.000000
    3        3.402808   1.000000
    4        3.402808   1.000000
    5        3.871816   1.000000
    6        3.871816   1.000000
    7        4.860564   1.000000
    8        4.860564   1.000000
    9        5.614996   1.000000
   10        5.614996   1.000000
   11        6.983521   1.000000
   12        6.983521   1.000000
   13       16.990926   0.000000
   14       16.990926   0.000000
   15       21.868813   0.000000
   16       21.868813   0.000000
   17       24.771058   0.000000
   18       24.771058   0.000000
   19       28.095053   0.000000
   20       28.095053   0.000000
   21       28.994201   0.000000
   22       28.994201   0.000000
   23       32.112937   0.000000
   24       32.112937   0.000000
 
 -0.2000000E+00  0.1333333E+00  0.0000000E+00  0.7111111E-02
    1        1.348919   1.000000
    2        1.348919   1.000000
    3        3.294853   1.000000
    4        3.294853   1.000000
    5        3.671568   1.000000
    6        3.671568   1.000000
    7        5.022493   1.000000
    8        5.022493   1.000000
    9        5.294356   1.000000
   10        5.294356   1.000000
   11        6.463131   1.000000
   12        6.463131   1.000000
   13       19.447164   0.000000
   14       19.447164   0.000000
   15       22.309231   0.000000
   16       22.309231   0.000000
   17       25.840655   0.000000
   18       25.840655   0.000000
   19       27.518896   0.000000
   20       27.518896   0.000000
   21       30.073210   0.000000
   22       30.073210   0.000000
   23       31.095165   0.000000
   24       31.095165   0.000000
 
 -0.1333333E+00  0.1333333E+00  0.0000000E+00  0.3555556E-02
    1        0.679858   1.000000
    2        0.679858   1.000000
    3        3.309252   1.000000
    4        3.309252   1.000000
    5        3.630147   1.000000
    6        3.630147   1.000000
    7        4.966139   1.000000
    8        4.966139   1.000000
    9        5.296999   1.000000
   10        5.296999   1.000000
   11        6.082277   1.000000
   12        6.082277   1.000000
   13       21.497182   0.000000
   14       21.497182   0.000000
   15       23.016954   0.000000
   16       23.016954   0.000000
   17       26.099080   0.000000
   18       26.099080   0.000000
   19       27.717263   0.000000
   20       27.717263   0.000000
   21       29.652600   0.000000
   22       29.652600   0.000000
   23       32.022244   0.000000
   24       32.022244   0.000000
 
  0.2000000E+00  0.2000000E+00  0.0000000E+00  0.1777778E-02
    1        0.858466   1.000000
    2        0.858466   1.000000
    3        3.054767   1.000000
    4        3.054767   1.000000
    5        3.820718   1.000000
    6        3.820718   1.000000
    7        5.074485   1.000000
    8        5.074485   1.000000
    9        5.370533   1.000000
   10        5.370533   1.000000
   11        6.030238   1.000000
   12        6.030238   1.000000
   13       23.032231   0.000000
   14       23.032231   0.000000
   15       24.471040   0.000000
   16       24.471040   0.000000
   17       24.658787   0.000000
   18       24.658787   0.000000
   19       24.856295   0.000000
   20       24.856295   0.000000