       N       E                     dE             d eps       ncg     rms          rms(c)
DAV:   1     0.690598897994E+02    0.69060E+02   -0.59350E+03  5792   0.982E+02
DAV:   2    -0.221042069170E+01   -0.71270E+02   -0.66263E+02  6928   0.234E+02
DAV:   3    -0.378156645817E+01   -0.15711E+01   -0.15648E+01  7104   0.345E+01
DAV:   4    -0.378928355233E+01   -0.77171E-02   -0.77167E-02  6992   0.257E+00
DAV:   5    -0.378936457384E+01   -0.81022E-04   -0.81026E-04  7192   0.277E-01    0.899E+00
DAV:   6    -0.358980611912E+01    0.19956E+00   -0.12424E-01  6672   0.405E+00    0.723E+00
DAV:   7    -0.350628227149E+01    0.83524E-01   -0.22483E-01  6456   0.548E+00    0.449E+00
DAV:   8    -0.350351935303E+01    0.27629E-02   -0.84884E-03  6608   0.848E-01    0.233E+00
DAV:   9    -0.350272380717E+01    0.79555E-03   -0.18697E-04  6808   0.135E-01    0.210E-01
DAV:  10    -0.350272965252E+01   -0.58453E-05   -0.54872E-06  7088   0.221E-02    0.305E-02
DAV:  11    -0.350273150927E+01   -0.18568E-05   -0.31660E-07  7016   0.563E-03    0.325E-02
DAV:  12    -0.350273140724E+01    0.10204E-06   -0.13342E-07  6760   0.407E-03    0.354E-04
DAV:  13    -0.350273140738E+01   -0.14381E-09   -0.11910E-09  3752   0.307E-04
   1 F= -.35027314E+01 E0= -.35027314E+01  d E =0.000000E+00  mag=    -0.0000     0.0000     0.0000
