 vasp.5.4.4.18Apr17-6-g9f103f2a35 (build Mar 08 2022 14:55:45) complex          
  
 executed on             LinuxIFC date 2024.04.05  13:14:53
 running on  128 total cores
 distrk:  each k-point on   64 cores,    2 groups
 distr:  one band on NCORES_PER_BAND=   8 cores,    8 groups


--------------------------------------------------------------------------------------------------------


 INCAR:
 POTCAR:    PW_PBE Au 04Oct2007                   

 ----------------------------------------------------------------------------- 
|                                                                             |
|           W    W    AA    RRRRR   N    N  II  N    N   GGGG   !!!           |
|           W    W   A  A   R    R  NN   N  II  NN   N  G    G  !!!           |
|           W    W  A    A  R    R  N N  N  II  N N  N  G       !!!           |
|           W WW W  AAAAAA  RRRRR   N  N N  II  N  N N  G  GGG   !            |
|           WW  WW  A    A  R   R   N   NN  II  N   NN  G    G                |
|           W    W  A    A  R    R  N    N  II  N    N   GGGG   !!!           |
|                                                                             |
|      You have enabled k-point parallelism (KPAR>1).                         |
|      This developmental code was originally  written by Paul Kent at ORNL,  |
|      and carefully double checked in Vienna.                                |
|      GW as well as linear response parallelism added by Martijn Marsman     |
|      and Georg Kresse.                                                      |
|      Carefully verify results versus KPAR=1.                                |
|      Report problems to Paul Kent and Vienna.                               |
|                                                                             |
 ----------------------------------------------------------------------------- 

 POTCAR:    PW_PBE Au 04Oct2007                   
   VRHFIN =Au: s1d10                                                            
   LEXCH  = PE                                                                  
   EATOM  =   926.0867 eV,   68.0654 Ry                                         
                                                                                
   TITEL  = PAW_PBE Au 04Oct2007                                                
   LULTRA =        F    use ultrasoft PP ?                                      
   IUNSCR =        1    unscreen: 0-lin 1-nonlin 2-no                           
   RPACOR =    2.330    partial core radius                                     
   POMASS =  196.966; ZVAL   =   11.000    mass and valenz                      
   RCORE  =    2.500    outmost cutoff radius                                   
   RWIGS  =    2.840; RWIGS  =    1.503    wigner-seitz radius (au A)           
   ENMAX  =  229.943; ENMIN  =  172.457 eV                                      
   ICORE  =        3    local potential                                         
   LCOR   =        T    correct aug charges                                     
   LPAW   =        T    paw PP                                                  
   EAUG   =  356.670                                                            
   DEXC   =    0.000                                                            
   RMAX   =    2.562    core radius for proj-oper                               
   RAUG   =    1.300    factor for augmentation sphere                          
   RDEP   =    2.598    radius for radial grids                                 
   RDEPT  =    2.193    core radius for aug-charge                              
                                                                                
   Atomic configuration                                                         
   16 entries                                                                   
     n  l   j            E        occ.                                          
     1  0  0.50    -80748.5001   2.0000                                         
     2  0  0.50    -14244.7466   2.0000                                         
     2  1  1.50    -12310.9591   6.0000                                         
     3  0  0.50     -3362.1768   2.0000                                         
     3  1  1.50     -2801.5463   6.0000                                         
     3  2  2.50     -2203.8206  10.0000                                         
     4  0  0.50      -729.8168   2.0000                                         
     4  1  1.50      -546.0527   6.0000                                         
     4  2  2.50      -325.7302  10.0000                                         
     4  3  3.50       -81.1472  14.0000                                         
     5  0  0.50      -108.3201   2.0000                                         
     5  1  1.50       -59.7479   6.0000                                         
     5  2  2.50        -6.8783  10.0000                                         
     6  0  0.50        -5.7602   1.0000                                         
     6  1  1.50        -6.8029   0.0000                                         
     5  3  2.50        -1.3606   0.0000                                         
   Description                                                                  
     l       E           TYP  RCUT    TYP  RCUT                                 
     2     -6.8782861     23  2.500                                             
     2     -8.2388687     23  2.500                                             
     0     -5.7601759     23  2.500                                             
     0     -0.8493231     23  2.500                                             
     1     -2.7211652     23  2.500                                             
     1     27.2116520     23  2.500                                             
     3     -1.3605826     23  2.500                                             
  local pseudopotential read in
  partial core-charges read in
  partial kinetic energy density read in
  atomic valenz-charges read in
  non local Contribution for L=           2  read in
    real space projection operators read in
  non local Contribution for L=           2  read in
    real space projection operators read in
  non local Contribution for L=           0  read in
    real space projection operators read in
  non local Contribution for L=           0  read in
    real space projection operators read in
  non local Contribution for L=           1  read in
    real space projection operators read in
  non local Contribution for L=           1  read in
    real space projection operators read in
    PAW grid and wavefunctions read in
 
   number of l-projection  operators is LMAX  =           6
   number of lm-projection operators is LMMAX =          18
 
  PW_PBE Au 04Oct2007                   :
 energy of atom  1       EATOM= -926.0867
 kinetic energy error for atom=    0.0013 (will be added to EATOM!!)
 
 
 POSCAR: Au1                                     
  positions in direct lattice
  velocities in cartesian coordinates
  No initial velocities read in
 exchange correlation table for  LEXCH =        8
   RHO(1)=    0.500       N(1)  =     2000
   RHO(2)=  100.500       N(2)  =     4000
 


--------------------------------------------------------------------------------------------------------


 ion  position               nearest neighbor table
   1  0.000  0.000  0.000-
 
  LATTYP: Found a face centered cubic cell.
 ALAT       =     4.1712884904
  
  Lattice vectors:
  
 A1 = (   0.0000000000,   2.0856442452,   2.0856442452)
 A2 = (   2.0856442452,   0.0000000000,   2.0856442452)
 A3 = (   2.0856442452,   2.0856442452,   0.0000000000)


Analysis of symmetry for initial positions (statically):
=====================================================================
 Subroutine PRICEL returns:
 Original cell was already a primitive cell.
 

 Routine SETGRP: Setting up the symmetry group for a 
 face centered cubic supercell.


 Subroutine GETGRP returns: Found 48 space group operations
 (whereof 48 operations were pure point group operations)
 out of a pool of 48 trial point group operations.


The static configuration has the point symmetry O_h .


Analysis of symmetry for dynamics (positions and initial velocities):
=====================================================================
 Subroutine PRICEL returns:
 Original cell was already a primitive cell.
 

 Routine SETGRP: Setting up the symmetry group for a 
 face centered cubic supercell.


 Subroutine GETGRP returns: Found 48 space group operations
 (whereof 48 operations were pure point group operations)
 out of a pool of 48 trial point group operations.


The dynamic configuration has the point symmetry O_h .


Analysis of structural, dynamic, and magnetic symmetry:
=====================================================================
 Subroutine PRICEL returns:
 Original cell was already a primitive cell.
 

 Routine SETGRP: Setting up the symmetry group for a 
 face centered cubic supercell.


 Subroutine GETGRP returns: Found 48 space group operations
 (whereof 48 operations were pure point group operations)
 out of a pool of 48 trial point group operations.


The (compounded) configuration has the point symmetry O_h .


 Subroutine INISYM returns: Found 48 space group operations
 (whereof 48 operations are pure point group operations),
 and found     1 'primitive' translations

 
 
 KPOINTS: Automatic mesh                          

Automatic generation of k-mesh.
Space group operators:
 irot       det(A)        alpha          n_x          n_y          n_z        tau_x        tau_y        tau_z
    1     1.000000     0.000000     1.000000     0.000000     0.000000     0.000000     0.000000     0.000000
    2    -1.000000     0.000000     1.000000     0.000000     0.000000     0.000000     0.000000     0.000000
    3     1.000000   120.000000    -0.577350    -0.577350    -0.577350     0.000000     0.000000     0.000000
    4    -1.000000   120.000000    -0.577350    -0.577350    -0.577350     0.000000     0.000000     0.000000
    5     1.000000   120.000000     0.577350     0.577350     0.577350     0.000000     0.000000     0.000000
    6    -1.000000   120.000000     0.577350     0.577350     0.577350     0.000000     0.000000     0.000000
    7     1.000000    90.000000     0.000000     0.000000    -1.000000     0.000000     0.000000     0.000000
    8    -1.000000    90.000000     0.000000     0.000000    -1.000000     0.000000     0.000000     0.000000
    9     1.000000   180.000000     0.000000     0.707107     0.707107     0.000000     0.000000     0.000000
   10    -1.000000   180.000000     0.000000     0.707107     0.707107     0.000000     0.000000     0.000000
   11     1.000000    90.000000     0.000000     1.000000     0.000000     0.000000     0.000000     0.000000
   12    -1.000000    90.000000     0.000000     1.000000     0.000000     0.000000     0.000000     0.000000
   13     1.000000   180.000000     0.000000     0.000000     1.000000     0.000000     0.000000     0.000000
   14    -1.000000   180.000000     0.000000     0.000000     1.000000     0.000000     0.000000     0.000000
   15     1.000000   120.000000    -0.577350     0.577350     0.577350     0.000000     0.000000     0.000000
   16    -1.000000   120.000000    -0.577350     0.577350     0.577350     0.000000     0.000000     0.000000
   17     1.000000   120.000000    -0.577350     0.577350    -0.577350     0.000000     0.000000     0.000000
   18    -1.000000   120.000000    -0.577350     0.577350    -0.577350     0.000000     0.000000     0.000000
   19     1.000000    90.000000     0.000000     0.000000     1.000000     0.000000     0.000000     0.000000
   20    -1.000000    90.000000     0.000000     0.000000     1.000000     0.000000     0.000000     0.000000
   21     1.000000    90.000000    -1.000000     0.000000     0.000000     0.000000     0.000000     0.000000
   22    -1.000000    90.000000    -1.000000     0.000000     0.000000     0.000000     0.000000     0.000000
   23     1.000000   180.000000     0.707107     0.000000     0.707107     0.000000     0.000000     0.000000
   24    -1.000000   180.000000     0.707107     0.000000     0.707107     0.000000     0.000000     0.000000
   25     1.000000   120.000000     0.577350    -0.577350     0.577350     0.000000     0.000000     0.000000
   26    -1.000000   120.000000     0.577350    -0.577350     0.577350     0.000000     0.000000     0.000000
   27     1.000000   120.000000    -0.577350    -0.577350     0.577350     0.000000     0.000000     0.000000
   28    -1.000000   120.000000    -0.577350    -0.577350     0.577350     0.000000     0.000000     0.000000
   29     1.000000   180.000000     1.000000     0.000000     0.000000     0.000000     0.000000     0.000000
   30    -1.000000   180.000000     1.000000     0.000000     0.000000     0.000000     0.000000     0.000000
   31     1.000000    90.000000     0.000000    -1.000000     0.000000     0.000000     0.000000     0.000000
   32    -1.000000    90.000000     0.000000    -1.000000     0.000000     0.000000     0.000000     0.000000
   33     1.000000   180.000000     0.707107     0.707107     0.000000     0.000000     0.000000     0.000000
   34    -1.000000   180.000000     0.707107     0.707107     0.000000     0.000000     0.000000     0.000000
   35     1.000000    90.000000     1.000000     0.000000     0.000000     0.000000     0.000000     0.000000
   36    -1.000000    90.000000     1.000000     0.000000     0.000000     0.000000     0.000000     0.000000
   37     1.000000   120.000000     0.577350    -0.577350    -0.577350     0.000000     0.000000     0.000000
   38    -1.000000   120.000000     0.577350    -0.577350    -0.577350     0.000000     0.000000     0.000000
   39     1.000000   180.000000     0.000000     1.000000     0.000000     0.000000     0.000000     0.000000
   40    -1.000000   180.000000     0.000000     1.000000     0.000000     0.000000     0.000000     0.000000
   41     1.000000   120.000000     0.577350     0.577350    -0.577350     0.000000     0.000000     0.000000
   42    -1.000000   120.000000     0.577350     0.577350    -0.577350     0.000000     0.000000     0.000000
   43     1.000000   180.000000     0.000000    -0.707107     0.707107     0.000000     0.000000     0.000000
   44    -1.000000   180.000000     0.000000    -0.707107     0.707107     0.000000     0.000000     0.000000
   45     1.000000   180.000000     0.707107    -0.707107     0.000000     0.000000     0.000000     0.000000
   46    -1.000000   180.000000     0.707107    -0.707107     0.000000     0.000000     0.000000     0.000000
   47     1.000000   180.000000     0.707107     0.000000    -0.707107     0.000000     0.000000     0.000000
   48    -1.000000   180.000000     0.707107     0.000000    -0.707107     0.000000     0.000000     0.000000
 
 Subroutine IBZKPT returns following result:
 ===========================================
 
 Found    120 irreducible k-points:
 
 Following reciprocal coordinates:
            Coordinates               Weight
  0.000000  0.000000  0.000000      1.000000
  0.066667  0.000000  0.000000      8.000000
  0.133333  0.000000  0.000000      8.000000
  0.200000  0.000000  0.000000      8.000000
  0.266667  0.000000  0.000000      8.000000
  0.333333  0.000000  0.000000      8.000000
  0.400000  0.000000  0.000000      8.000000
  0.466667  0.000000  0.000000      8.000000
  0.066667  0.066667  0.000000      6.000000
  0.133333  0.066667  0.000000     24.000000
  0.200000  0.066667  0.000000     24.000000
  0.266667  0.066667  0.000000     24.000000
  0.333333  0.066667  0.000000     24.000000
  0.400000  0.066667  0.000000     24.000000
  0.466667  0.066667  0.000000     24.000000
 -0.466667  0.066667  0.000000     24.000000
 -0.400000  0.066667  0.000000     24.000000
 -0.333333  0.066667  0.000000     24.000000
 -0.266667  0.066667  0.000000     24.000000
 -0.200000  0.066667  0.000000     24.000000
 -0.133333  0.066667  0.000000     24.000000
 -0.066667  0.066667  0.000000     12.000000
  0.133333  0.133333  0.000000      6.000000
  0.200000  0.133333  0.000000     24.000000
  0.266667  0.133333  0.000000     24.000000
  0.333333  0.133333  0.000000     24.000000
  0.400000  0.133333  0.000000     24.000000
  0.466667  0.133333  0.000000     24.000000
 -0.466667  0.133333  0.000000     24.000000
 -0.400000  0.133333  0.000000     24.000000
 -0.333333  0.133333  0.000000     24.000000
 -0.266667  0.133333  0.000000     24.000000
 -0.200000  0.133333  0.000000     24.000000
 -0.133333  0.133333  0.000000     12.000000
  0.200000  0.200000  0.000000      6.000000
  0.266667  0.200000  0.000000     24.000000
  0.333333  0.200000  0.000000     24.000000
  0.400000  0.200000  0.000000     24.000000
  0.466667  0.200000  0.000000     24.000000
 -0.466667  0.200000  0.000000     24.000000
 -0.400000  0.200000  0.000000     24.000000
 -0.333333  0.200000  0.000000     24.000000
 -0.266667  0.200000  0.000000     24.000000
 -0.200000  0.200000  0.000000     12.000000
  0.266667  0.266667  0.000000      6.000000
  0.333333  0.266667  0.000000     24.000000
  0.400000  0.266667  0.000000     24.000000
  0.466667  0.266667  0.000000     24.000000
 -0.466667  0.266667  0.000000     24.000000
 -0.400000  0.266667  0.000000     24.000000
 -0.333333  0.266667  0.000000     24.000000
 -0.266667  0.266667  0.000000     12.000000
  0.333333  0.333333  0.000000      6.000000
  0.400000  0.333333  0.000000     24.000000
  0.466667  0.333333  0.000000     24.000000
 -0.466667  0.333333  0.000000     24.000000
 -0.400000  0.333333  0.000000     24.000000
 -0.333333  0.333333  0.000000     12.000000
  0.400000  0.400000  0.000000      6.000000
  0.466667  0.400000  0.000000     24.000000
 -0.466667  0.400000  0.000000     24.000000
 -0.400000  0.400000  0.000000     12.000000
  0.466667  0.466667  0.000000      6.000000
 -0.466667  0.466667  0.000000     12.000000
  0.200000  0.133333  0.066667     24.000000
  0.266667  0.133333  0.066667     48.000000
  0.333333  0.133333  0.066667     48.000000
  0.400000  0.133333  0.066667     48.000000
  0.466667  0.133333  0.066667     48.000000
 -0.466667  0.133333  0.066667     48.000000
  0.266667  0.200000  0.066667     24.000000
  0.333333  0.200000  0.066667     48.000000
  0.400000  0.200000  0.066667     48.000000
  0.466667  0.200000  0.066667     48.000000
 -0.466667  0.200000  0.066667     48.000000
 -0.400000  0.200000  0.066667     48.000000
 -0.333333  0.200000  0.066667     48.000000
 -0.266667  0.200000  0.066667     48.000000
 -0.200000  0.200000  0.066667     48.000000
 -0.133333  0.200000  0.066667     24.000000
  0.333333  0.266667  0.066667     24.000000
  0.400000  0.266667  0.066667     48.000000
  0.466667  0.266667  0.066667     48.000000
 -0.466667  0.266667  0.066667     48.000000
 -0.400000  0.266667  0.066667     48.000000
 -0.333333  0.266667  0.066667     48.000000
 -0.266667  0.266667  0.066667     48.000000
 -0.200000  0.266667  0.066667     24.000000
  0.400000  0.333333  0.066667     24.000000
  0.466667  0.333333  0.066667     48.000000
 -0.466667  0.333333  0.066667     48.000000
 -0.400000  0.333333  0.066667     48.000000
 -0.333333  0.333333  0.066667     48.000000
 -0.266667  0.333333  0.066667     24.000000
  0.466667  0.400000  0.066667     24.000000
 -0.466667  0.400000  0.066667     48.000000
 -0.400000  0.400000  0.066667     48.000000
 -0.333333  0.400000  0.066667     24.000000
 -0.466667  0.466667  0.066667     24.000000
 -0.400000  0.466667  0.066667     24.000000
  0.400000  0.266667  0.133333     24.000000
  0.466667  0.266667  0.133333     48.000000
 -0.466667  0.266667  0.133333     48.000000
 -0.400000  0.266667  0.133333     48.000000
  0.466667  0.333333  0.133333     24.000000
 -0.466667  0.333333  0.133333     48.000000
 -0.400000  0.333333  0.133333     48.000000
 -0.333333  0.333333  0.133333     48.000000
 -0.266667  0.333333  0.133333     48.000000
 -0.200000  0.333333  0.133333     24.000000
 -0.466667  0.400000  0.133333     24.000000
 -0.400000  0.400000  0.133333     48.000000
 -0.333333  0.400000  0.133333     48.000000
 -0.266667  0.400000  0.133333     24.000000
 -0.400000  0.466667  0.133333     24.000000
 -0.333333  0.466667  0.133333     24.000000
 -0.400000  0.400000  0.200000     24.000000
 -0.333333  0.400000  0.200000     48.000000
 -0.333333  0.466667  0.200000     24.000000
 -0.266667  0.466667  0.200000     24.000000
 
 Following cartesian coordinates:
            Coordinates               Weight
  0.000000  0.000000  0.000000      1.000000
 -0.015982  0.015982  0.015982      8.000000
 -0.031965  0.031965  0.031965      8.000000
 -0.047947  0.047947  0.047947      8.000000
 -0.063929  0.063929  0.063929      8.000000
 -0.079911  0.079911  0.079911      8.000000
 -0.095894  0.095894  0.095894      8.000000
 -0.111876  0.111876  0.111876      8.000000
  0.000000  0.000000  0.031965      6.000000
 -0.015982  0.015982  0.047947     24.000000
 -0.031965  0.031965  0.063929     24.000000
 -0.047947  0.047947  0.079911     24.000000
 -0.063929  0.063929  0.095894     24.000000
 -0.079911  0.079911  0.111876     24.000000
 -0.095894  0.095894  0.127858     24.000000
  0.127858 -0.127858 -0.095894     24.000000
  0.111876 -0.111876 -0.079911     24.000000
  0.095894 -0.095894 -0.063929     24.000000
  0.079911 -0.079911 -0.047947     24.000000
  0.063929 -0.063929 -0.031965     24.000000
  0.047947 -0.047947 -0.015982     24.000000
  0.031965 -0.031965  0.000000     12.000000
  0.000000  0.000000  0.063929      6.000000
 -0.015982  0.015982  0.079911     24.000000
 -0.031965  0.031965  0.095894     24.000000
 -0.047947  0.047947  0.111876     24.000000
 -0.063929  0.063929  0.127858     24.000000
 -0.079911  0.079911  0.143840     24.000000
  0.143840 -0.143840 -0.079911     24.000000
  0.127858 -0.127858 -0.063929     24.000000
  0.111876 -0.111876 -0.047947     24.000000
  0.095894 -0.095894 -0.031965     24.000000
  0.079911 -0.079911 -0.015982     24.000000
  0.063929 -0.063929  0.000000     12.000000
  0.000000  0.000000  0.095894      6.000000
 -0.015982  0.015982  0.111876     24.000000
 -0.031965  0.031965  0.127858     24.000000
 -0.047947  0.047947  0.143840     24.000000
 -0.063929  0.063929  0.159823     24.000000
  0.159823 -0.159823 -0.063929     24.000000
  0.143840 -0.143840 -0.047947     24.000000
  0.127858 -0.127858 -0.031965     24.000000
  0.111876 -0.111876 -0.015982     24.000000
  0.095894 -0.095894  0.000000     12.000000
  0.000000  0.000000  0.127858      6.000000
 -0.015982  0.015982  0.143840     24.000000
 -0.031965  0.031965  0.159823     24.000000
 -0.047947  0.047947  0.175805     24.000000
  0.175805 -0.175805 -0.047947     24.000000
  0.159823 -0.159823 -0.031965     24.000000
  0.143840 -0.143840 -0.015982     24.000000
  0.127858 -0.127858  0.000000     12.000000
  0.000000  0.000000  0.159823      6.000000
 -0.015982  0.015982  0.175805     24.000000
 -0.031965  0.031965  0.191787     24.000000
  0.191787 -0.191787 -0.031965     24.000000
  0.175805 -0.175805 -0.015982     24.000000
  0.159823 -0.159823  0.000000     12.000000
  0.000000  0.000000  0.191787      6.000000
 -0.015982  0.015982  0.207770     24.000000
  0.207770 -0.207770 -0.015982     24.000000
  0.191787 -0.191787  0.000000     12.000000
  0.000000  0.000000  0.223752      6.000000
  0.223752 -0.223752  0.000000     12.000000
 -0.000000  0.031965  0.063929     24.000000
 -0.015982  0.047947  0.079911     48.000000
 -0.031965  0.063929  0.095894     48.000000
 -0.047947  0.079911  0.111876     48.000000
 -0.063929  0.095894  0.127858     48.000000
  0.159823 -0.127858 -0.095894     48.000000
  0.000000  0.031965  0.095894     24.000000
 -0.015982  0.047947  0.111876     48.000000
 -0.031965  0.063929  0.127858     48.000000
 -0.047947  0.079911  0.143840     48.000000
  0.175805 -0.143840 -0.079911     48.000000
  0.159823 -0.127858 -0.063929     48.000000
  0.143840 -0.111876 -0.047947     48.000000
  0.127858 -0.095894 -0.031965     48.000000
  0.111876 -0.079911 -0.015982     48.000000
  0.095894 -0.063929  0.000000     24.000000
  0.000000  0.031965  0.127858     24.000000
 -0.015982  0.047947  0.143840     48.000000
 -0.031965  0.063929  0.159823     48.000000
  0.191787 -0.159823 -0.063929     48.000000
  0.175805 -0.143840 -0.047947     48.000000
  0.159823 -0.127858 -0.031965     48.000000
  0.143840 -0.111876 -0.015982     48.000000
  0.127858 -0.095894 -0.000000     24.000000
 -0.000000  0.031965  0.159823     24.000000
 -0.015982  0.047947  0.175805     48.000000
  0.207770 -0.175805 -0.047947     48.000000
  0.191787 -0.159823 -0.031965     48.000000
  0.175805 -0.143840 -0.015982     48.000000
  0.159823 -0.127858 -0.000000     24.000000
  0.000000  0.031965  0.191787     24.000000
  0.223752 -0.191787 -0.031965     48.000000
  0.207770 -0.175805 -0.015982     48.000000
  0.191787 -0.159823  0.000000     24.000000
  0.239734 -0.207770 -0.015982     24.000000
  0.223752 -0.191787 -0.000000     24.000000
 -0.000000  0.063929  0.127858     24.000000
 -0.015982  0.079911  0.143840     48.000000
  0.207770 -0.143840 -0.079911     48.000000
  0.191787 -0.127858 -0.063929     48.000000
 -0.000000  0.063929  0.159823     24.000000
  0.223752 -0.159823 -0.063929     48.000000
  0.207770 -0.143840 -0.047947     48.000000
  0.191787 -0.127858 -0.031965     48.000000
  0.175805 -0.111876 -0.015982     48.000000
  0.159823 -0.095894 -0.000000     24.000000
  0.239734 -0.175805 -0.047947     24.000000
  0.223752 -0.159823 -0.031965     48.000000
  0.207770 -0.143840 -0.015982     48.000000
  0.191787 -0.127858  0.000000     24.000000
  0.239734 -0.175805 -0.015982     24.000000
  0.223752 -0.159823  0.000000     24.000000
  0.239734 -0.143840 -0.047947     24.000000
  0.223752 -0.127858 -0.031965     48.000000
  0.239734 -0.143840 -0.015982     24.000000
  0.223752 -0.127858  0.000000     24.000000
 
 TETIRR: Found    484 inequivalent tetrahedra from    20250


--------------------------------------------------------------------------------------------------------




 Dimension of arrays:
   k-points           NKPTS =    120   k-points in BZ     NKDIM =    120   number of bands    NBANDS=     24
   number of dos      NEDOS =   9999   number of ions     NIONS =      1
   non local maximal  LDIM  =      6   non local SUM 2l+1 LMDIM =     18
   total plane-waves  NPLWV =  13824
   max r-space proj   IRMAX =      1   max aug-charges    IRDMAX= 372884
   dimension x,y,z NGX =    24 NGY =   24 NGZ =   24
   dimension x,y,z NGXF=    48 NGYF=   48 NGZF=   48
   support grid    NGXF=    96 NGYF=   96 NGZF=   96
   ions per type =               1
   NGX,Y,Z   is equivalent  to a cutoff of  13.53, 13.53, 13.53 a.u.
   NGXF,Y,Z  is equivalent  to a cutoff of  27.05, 27.05, 27.05 a.u.

 SYSTEM =  Au                                      
 POSCAR =  Au1                                     

 Startparameter for this run:
   NWRITE =      2    write-flag & timer
   PREC   = a         normal or accurate (medium, high low for compatibility)
   ISTART =      0    job   : 0-new  1-cont  2-samecut
   ICHARG =      2    charge: 1-file 2-atom 10-const
   ISPIN  =      1    spin polarized calculation?
   LNONCOLLINEAR =      T non collinear calculations
   LSORBIT =      T    spin-orbit coupling
   INIWAV =      1    electr: 0-lowe 1-rand  2-diag
   LASPH  =      T    aspherical Exc in radial PAW
   METAGGA=      F    non-selfconsistent MetaGGA calc.

 Electronic Relaxation 1
   ENCUT  =  600.0 eV  44.10 Ry    6.64 a.u.   5.89  5.89  5.89*2*pi/ulx,y,z
   ENINI  =  600.0     initial cutoff
   ENAUG  =  356.7 eV  augmentation charge cutoff
   NELM   =    500;   NELMIN=  2; NELMDL= -5     # of ELM steps 
   EDIFF  = 0.1E-06   stopping-criterion for ELM
   LREAL  =      F    real-space projection
   NLSPLINE    = F    spline interpolate recip. space projectors
   LCOMPAT=      F    compatible to vasp.4.4
   GGA_COMPAT  = T    GGA compatible to vasp.4.4-vasp.4.6
   LMAXPAW     = -100 max onsite density
   LMAXMIX     =    2 max onsite mixed and CHGCAR
   VOSKOWN=      0    Vosko Wilk Nusair interpolation
   ROPT   =    0.00000
 Ionic relaxation
   EDIFFG = -.8E-02   stopping-criterion for IOM
   NSW    =      0    number of steps for IOM
   NBLOCK =      1;   KBLOCK =      1    inner block; outer block 
   IBRION =     -1    ionic relax: 0-MD 1-quasi-New 2-CG
   NFREE  =      0    steps in history (QN), initial steepest desc. (CG)
   ISIF   =      2    stress and relaxation
   IWAVPR =     10    prediction:  0-non 1-charg 2-wave 3-comb
   ISYM   =      2    0-nonsym 1-usesym 2-fastsym
   LCORR  =      T    Harris-Foulkes like correction to forces

   POTIM  = 0.5000    time-step for ionic-motion
   TEIN   =    0.0    initial temperature
   TEBEG  =    0.0;   TEEND  =   0.0 temperature during run
   SMASS  =  -3.00    Nose mass-parameter (am)
   estimated Nose-frequenzy (Omega)   =  0.10E-29 period in steps =****** mass=  -0.199E-27a.u.
   SCALEE = 1.0000    scale energy and forces
   NPACO  =    256;   APACO  = 16.0  distance and # of slots for P.C.
   PSTRESS=    0.0 pullay stress

  Mass of Ions in am
   POMASS = 196.97
  Ionic Valenz
   ZVAL   =  11.00
  Atomic Wigner-Seitz radii
   RWIGS  =  -1.00
  virtual crystal weights 
   VCA    =   1.00
   NELECT =      11.0000    total number of electrons
   NUPDOWN=      -1.0000    fix difference up-down

 DOS related values:
   EMIN   =  10.00;   EMAX   =-10.00  energy-range for DOS
   EFERMI =   0.00
   ISMEAR =    -5;   SIGMA  =   0.00  broadening in eV -4-tet -1-fermi 0-gaus

 Electronic relaxation 2 (details)
   IALGO  =     38    algorithm
   LDIAG  =      T    sub-space diagonalisation (order eigenvalues)
   LSUBROT=      F    optimize rotation matrix (better conditioning)
   TURBO    =      0    0=normal 1=particle mesh
   IRESTART =      0    0=no restart 2=restart with 2 vectors
   NREBOOT  =      0    no. of reboots
   NMIN     =      0    reboot dimension
   EREF     =   0.00    reference energy to select bands
   IMIX   =      4    mixing-type and parameters
     AMIX     =   0.20;   BMIX     =  0.00
     AMIX_MAG =   0.80;   BMIX_MAG =  0.00
     AMIN     =   0.10
     WC   =   100.;   INIMIX=   1;  MIXPRE=   1;  MAXMIX= -45

 Intra band minimization:
   WEIMIN = 0.0000     energy-eigenvalue tresh-hold
   EBREAK =  0.10E-08  absolut break condition
   DEPER  =   0.30     relativ break condition  

   TIME   =   0.40     timestep for ELM

  volume/ion in A,a.u.               =      18.14       122.45
  Fermi-wavevector in a.u.,A,eV,Ry     =   1.385550  2.618310 26.119763  1.919748
  Thomas-Fermi vector in A             =   2.509949
 
 Write flags
   LWAVE        =      F    write WAVECAR
   LDOWNSAMPLE  =      F    k-point downsampling of WAVECAR
   LCHARG       =      T    write CHGCAR
   LVTOT        =      F    write LOCPOT, total local potential
   LVHAR        =      F    write LOCPOT, Hartree potential only
   LELF         =      F    write electronic localiz. function (ELF)
   LORBIT       =     11    0 simple, 1 ext, 2 COOP (PROOUT), +10 PAW based schemes


 Dipole corrections
   LMONO  =      F    monopole corrections only (constant potential shift)
   LDIPOL =      F    correct potential (dipole corrections)
   IDIPOL =      0    1-x, 2-y, 3-z, 4-all directions 
   EPSILON=  1.0000000 bulk dielectric constant

 Exchange correlation treatment:
   GGA     =    PE    GGA type
   LEXCH   =     8    internal setting for exchange type
   VOSKOWN=      0    Vosko Wilk Nusair interpolation
   LHFCALC =     F    Hartree Fock is set to
   LHFONE  =     F    Hartree Fock one center treatment
   AEXX    =    0.0000 exact exchange contribution

 Linear response parameters
   LEPSILON=     F    determine dielectric tensor
   LRPA    =     F    only Hartree local field effects (RPA)
   LNABLA  =     F    use nabla operator in PAW spheres
   LVEL    =     F    velocity operator in full k-point grid
   LINTERFAST=   F  fast interpolation
   KINTER  =     0    interpolate to denser k-point grid
   CSHIFT  =0.1000    complex shift for real part using Kramers Kronig
   OMEGAMAX=  -1.0    maximum frequency
   DEG_THRESHOLD= 0.2000000E-02 threshold for treating states as degnerate
   RTIME   =   -0.100 relaxation time in fs
  (WPLASMAI=    0.000 imaginary part of plasma frequency in eV, 0.658/RTIME)
   DFIELD  = 0.0000000 0.0000000 0.0000000 field for delta impulse in time
 
 Orbital magnetization related:
   ORBITALMAG=     F  switch on orbital magnetization
   LCHIMAG   =     F  perturbation theory with respect to B field
   DQ        =  0.001000  dq finite difference perturbation B field
   LLRAUG    =     F  two centre corrections for induced B field



--------------------------------------------------------------------------------------------------------


 Static calculation
 charge density and potential will be updated during run
 non collinear spin polarized calculation
 Variant of blocked Davidson
 Davidson routine will perform the subspace rotation
 perform sub-space diagonalisation
    after iterative eigenvector-optimisation
 modified Broyden-mixing scheme, WC =      100.0
 initial mixing is a Kerker type mixing with AMIX =  0.2000 and BMIX =      0.0000
 Hartree-type preconditioning will be used
 using additional bands           18
 reciprocal scheme for non local part
 use partial core corrections
 calculate Harris-corrections to forces 
   (improved forces if not selfconsistent)
 use gradient corrections 
 use of overlap-Matrix (Vanderbilt PP)
 Fermi weights with tetrahedron method with Bloechl corrections


--------------------------------------------------------------------------------------------------------


  energy-cutoff  :      600.00
  volume of cell :       18.14
      direct lattice vectors                 reciprocal lattice vectors
     0.000000000  2.085644245  2.085644245    -0.239734078  0.239734078  0.239734078
     2.085644245  0.000000000  2.085644245     0.239734078 -0.239734078  0.239734078
     2.085644245  2.085644245  0.000000000     0.239734078  0.239734078 -0.239734078

  length of vectors
     2.949546378  2.949546378  2.949546378     0.415231603  0.415231603  0.415231603


 
 k-points in units of 2pi/SCALE and weight: Automatic mesh                          
   0.00000000  0.00000000  0.00000000       0.000
  -0.01598227  0.01598227  0.01598227       0.002
  -0.03196454  0.03196454  0.03196454       0.002
  -0.04794682  0.04794682  0.04794682       0.002
  -0.06392909  0.06392909  0.06392909       0.002
  -0.07991136  0.07991136  0.07991136       0.002
  -0.09589363  0.09589363  0.09589363       0.002
  -0.11187590  0.11187590  0.11187590       0.002
   0.00000000  0.00000000  0.03196454       0.002
  -0.01598227  0.01598227  0.04794682       0.007
  -0.03196454  0.03196454  0.06392909       0.007
  -0.04794682  0.04794682  0.07991136       0.007
  -0.06392909  0.06392909  0.09589363       0.007
  -0.07991136  0.07991136  0.11187590       0.007
  -0.09589363  0.09589363  0.12785817       0.007
   0.12785817 -0.12785817 -0.09589363       0.007
   0.11187590 -0.11187590 -0.07991136       0.007
   0.09589363 -0.09589363 -0.06392909       0.007
   0.07991136 -0.07991136 -0.04794682       0.007
   0.06392909 -0.06392909 -0.03196454       0.007
   0.04794682 -0.04794682 -0.01598227       0.007
   0.03196454 -0.03196454  0.00000000       0.004
   0.00000000  0.00000000  0.06392909       0.002
  -0.01598227  0.01598227  0.07991136       0.007
  -0.03196454  0.03196454  0.09589363       0.007
  -0.04794682  0.04794682  0.11187590       0.007
  -0.06392909  0.06392909  0.12785817       0.007
  -0.07991136  0.07991136  0.14384045       0.007
   0.14384045 -0.14384045 -0.07991136       0.007
   0.12785817 -0.12785817 -0.06392909       0.007
   0.11187590 -0.11187590 -0.04794682       0.007
   0.09589363 -0.09589363 -0.03196454       0.007
   0.07991136 -0.07991136 -0.01598227       0.007
   0.06392909 -0.06392909  0.00000000       0.004
   0.00000000  0.00000000  0.09589363       0.002
  -0.01598227  0.01598227  0.11187590       0.007
  -0.03196454  0.03196454  0.12785817       0.007
  -0.04794682  0.04794682  0.14384045       0.007
  -0.06392909  0.06392909  0.15982272       0.007
   0.15982272 -0.15982272 -0.06392909       0.007
   0.14384045 -0.14384045 -0.04794682       0.007
   0.12785817 -0.12785817 -0.03196454       0.007
   0.11187590 -0.11187590 -0.01598227       0.007
   0.09589363 -0.09589363  0.00000000       0.004
   0.00000000  0.00000000  0.12785817       0.002
  -0.01598227  0.01598227  0.14384045       0.007
  -0.03196454  0.03196454  0.15982272       0.007
  -0.04794682  0.04794682  0.17580499       0.007
   0.17580499 -0.17580499 -0.04794682       0.007
   0.15982272 -0.15982272 -0.03196454       0.007
   0.14384045 -0.14384045 -0.01598227       0.007
   0.12785817 -0.12785817  0.00000000       0.004
   0.00000000  0.00000000  0.15982272       0.002
  -0.01598227  0.01598227  0.17580499       0.007
  -0.03196454  0.03196454  0.19178726       0.007
   0.19178726 -0.19178726 -0.03196454       0.007
   0.17580499 -0.17580499 -0.01598227       0.007
   0.15982272 -0.15982272  0.00000000       0.004
   0.00000000  0.00000000  0.19178726       0.002
  -0.01598227  0.01598227  0.20776953       0.007
   0.20776953 -0.20776953 -0.01598227       0.007
   0.19178726 -0.19178726  0.00000000       0.004
   0.00000000  0.00000000  0.22375181       0.002
   0.22375181 -0.22375181  0.00000000       0.004
  -0.00000000  0.03196454  0.06392909       0.007
  -0.01598227  0.04794682  0.07991136       0.014
  -0.03196454  0.06392909  0.09589363       0.014
  -0.04794682  0.07991136  0.11187590       0.014
  -0.06392909  0.09589363  0.12785817       0.014
   0.15982272 -0.12785817 -0.09589363       0.014
   0.00000000  0.03196454  0.09589363       0.007
  -0.01598227  0.04794682  0.11187590       0.014
  -0.03196454  0.06392909  0.12785817       0.014
  -0.04794682  0.07991136  0.14384045       0.014
   0.17580499 -0.14384045 -0.07991136       0.014
   0.15982272 -0.12785817 -0.06392909       0.014
   0.14384045 -0.11187590 -0.04794682       0.014
   0.12785817 -0.09589363 -0.03196454       0.014
   0.11187590 -0.07991136 -0.01598227       0.014
   0.09589363 -0.06392909  0.00000000       0.007
   0.00000000  0.03196454  0.12785817       0.007
  -0.01598227  0.04794682  0.14384045       0.014
  -0.03196454  0.06392909  0.15982272       0.014
   0.19178726 -0.15982272 -0.06392909       0.014
   0.17580499 -0.14384045 -0.04794682       0.014
   0.15982272 -0.12785817 -0.03196454       0.014
   0.14384045 -0.11187590 -0.01598227       0.014
   0.12785817 -0.09589363 -0.00000000       0.007
  -0.00000000  0.03196454  0.15982272       0.007
  -0.01598227  0.04794682  0.17580499       0.014
   0.20776953 -0.17580499 -0.04794682       0.014
   0.19178726 -0.15982272 -0.03196454       0.014
   0.17580499 -0.14384045 -0.01598227       0.014
   0.15982272 -0.12785817 -0.00000000       0.007
   0.00000000  0.03196454  0.19178726       0.007
   0.22375181 -0.19178726 -0.03196454       0.014
   0.20776953 -0.17580499 -0.01598227       0.014
   0.19178726 -0.15982272  0.00000000       0.007
   0.23973408 -0.20776953 -0.01598227       0.007
   0.22375181 -0.19178726 -0.00000000       0.007
  -0.00000000  0.06392909  0.12785817       0.007
  -0.01598227  0.07991136  0.14384045       0.014
   0.20776953 -0.14384045 -0.07991136       0.014
   0.19178726 -0.12785817 -0.06392909       0.014
  -0.00000000  0.06392909  0.15982272       0.007
   0.22375181 -0.15982272 -0.06392909       0.014
   0.20776953 -0.14384045 -0.04794682       0.014
   0.19178726 -0.12785817 -0.03196454       0.014
   0.17580499 -0.11187590 -0.01598227       0.014
   0.15982272 -0.09589363 -0.00000000       0.007
   0.23973408 -0.17580499 -0.04794682       0.007
   0.22375181 -0.15982272 -0.03196454       0.014
   0.20776953 -0.14384045 -0.01598227       0.014
   0.19178726 -0.12785817  0.00000000       0.007
   0.23973408 -0.17580499 -0.01598227       0.007
   0.22375181 -0.15982272  0.00000000       0.007
   0.23973408 -0.14384045 -0.04794682       0.007
   0.22375181 -0.12785817 -0.03196454       0.014
   0.23973408 -0.14384045 -0.01598227       0.007
   0.22375181 -0.12785817  0.00000000       0.007
 
 k-points in reciprocal lattice and weights: Automatic mesh                          
   0.00000000  0.00000000  0.00000000       0.000
   0.06666667  0.00000000  0.00000000       0.002
   0.13333333  0.00000000  0.00000000       0.002
   0.20000000  0.00000000  0.00000000       0.002
   0.26666667  0.00000000  0.00000000       0.002
   0.33333333  0.00000000  0.00000000       0.002
   0.40000000  0.00000000  0.00000000       0.002
   0.46666667  0.00000000  0.00000000       0.002
   0.06666667  0.06666667  0.00000000       0.002
   0.13333333  0.06666667  0.00000000       0.007
   0.20000000  0.06666667  0.00000000       0.007
   0.26666667  0.06666667  0.00000000       0.007
   0.33333333  0.06666667  0.00000000       0.007
   0.40000000  0.06666667  0.00000000       0.007
   0.46666667  0.06666667  0.00000000       0.007
  -0.46666667  0.06666667  0.00000000       0.007
  -0.40000000  0.06666667  0.00000000       0.007
  -0.33333333  0.06666667  0.00000000       0.007
  -0.26666667  0.06666667  0.00000000       0.007
  -0.20000000  0.06666667  0.00000000       0.007
  -0.13333333  0.06666667  0.00000000       0.007
  -0.06666667  0.06666667  0.00000000       0.004
   0.13333333  0.13333333  0.00000000       0.002
   0.20000000  0.13333333  0.00000000       0.007
   0.26666667  0.13333333  0.00000000       0.007
   0.33333333  0.13333333  0.00000000       0.007
   0.40000000  0.13333333  0.00000000       0.007
   0.46666667  0.13333333  0.00000000       0.007
  -0.46666667  0.13333333  0.00000000       0.007
  -0.40000000  0.13333333  0.00000000       0.007
  -0.33333333  0.13333333  0.00000000       0.007
  -0.26666667  0.13333333  0.00000000       0.007
  -0.20000000  0.13333333  0.00000000       0.007
  -0.13333333  0.13333333  0.00000000       0.004
   0.20000000  0.20000000  0.00000000       0.002
   0.26666667  0.20000000  0.00000000       0.007
   0.33333333  0.20000000  0.00000000       0.007
   0.40000000  0.20000000  0.00000000       0.007
   0.46666667  0.20000000  0.00000000       0.007
  -0.46666667  0.20000000  0.00000000       0.007
  -0.40000000  0.20000000  0.00000000       0.007
  -0.33333333  0.20000000  0.00000000       0.007
  -0.26666667  0.20000000  0.00000000       0.007
  -0.20000000  0.20000000  0.00000000       0.004
   0.26666667  0.26666667  0.00000000       0.002
   0.33333333  0.26666667  0.00000000       0.007
   0.40000000  0.26666667  0.00000000       0.007
   0.46666667  0.26666667  0.00000000       0.007
  -0.46666667  0.26666667  0.00000000       0.007
  -0.40000000  0.26666667  0.00000000       0.007
  -0.33333333  0.26666667  0.00000000       0.007
  -0.26666667  0.26666667  0.00000000       0.004
   0.33333333  0.33333333  0.00000000       0.002
   0.40000000  0.33333333  0.00000000       0.007
   0.46666667  0.33333333  0.00000000       0.007
  -0.46666667  0.33333333  0.00000000       0.007
  -0.40000000  0.33333333  0.00000000       0.007
  -0.33333333  0.33333333  0.00000000       0.004
   0.40000000  0.40000000  0.00000000       0.002
   0.46666667  0.40000000  0.00000000       0.007
  -0.46666667  0.40000000  0.00000000       0.007
  -0.40000000  0.40000000  0.00000000       0.004
   0.46666667  0.46666667  0.00000000       0.002
  -0.46666667  0.46666667  0.00000000       0.004
   0.20000000  0.13333333  0.06666667       0.007
   0.26666667  0.13333333  0.06666667       0.014
   0.33333333  0.13333333  0.06666667       0.014
   0.40000000  0.13333333  0.06666667       0.014
   0.46666667  0.13333333  0.06666667       0.014
  -0.46666667  0.13333333  0.06666667       0.014
   0.26666667  0.20000000  0.06666667       0.007
   0.33333333  0.20000000  0.06666667       0.014
   0.40000000  0.20000000  0.06666667       0.014
   0.46666667  0.20000000  0.06666667       0.014
  -0.46666667  0.20000000  0.06666667       0.014
  -0.40000000  0.20000000  0.06666667       0.014
  -0.33333333  0.20000000  0.06666667       0.014
  -0.26666667  0.20000000  0.06666667       0.014
  -0.20000000  0.20000000  0.06666667       0.014
  -0.13333333  0.20000000  0.06666667       0.007
   0.33333333  0.26666667  0.06666667       0.007
   0.40000000  0.26666667  0.06666667       0.014
   0.46666667  0.26666667  0.06666667       0.014
  -0.46666667  0.26666667  0.06666667       0.014
  -0.40000000  0.26666667  0.06666667       0.014
  -0.33333333  0.26666667  0.06666667       0.014
  -0.26666667  0.26666667  0.06666667       0.014
  -0.20000000  0.26666667  0.06666667       0.007
   0.40000000  0.33333333  0.06666667       0.007
   0.46666667  0.33333333  0.06666667       0.014
  -0.46666667  0.33333333  0.06666667       0.014
  -0.40000000  0.33333333  0.06666667       0.014
  -0.33333333  0.33333333  0.06666667       0.014
  -0.26666667  0.33333333  0.06666667       0.007
   0.46666667  0.40000000  0.06666667       0.007
  -0.46666667  0.40000000  0.06666667       0.014
  -0.40000000  0.40000000  0.06666667       0.014
  -0.33333333  0.40000000  0.06666667       0.007
  -0.46666667  0.46666667  0.06666667       0.007
  -0.40000000  0.46666667  0.06666667       0.007
   0.40000000  0.26666667  0.13333333       0.007
   0.46666667  0.26666667  0.13333333       0.014
  -0.46666667  0.26666667  0.13333333       0.014
  -0.40000000  0.26666667  0.13333333       0.014
   0.46666667  0.33333333  0.13333333       0.007
  -0.46666667  0.33333333  0.13333333       0.014
  -0.40000000  0.33333333  0.13333333       0.014
  -0.33333333  0.33333333  0.13333333       0.014
  -0.26666667  0.33333333  0.13333333       0.014
  -0.20000000  0.33333333  0.13333333       0.007
  -0.46666667  0.40000000  0.13333333       0.007
  -0.40000000  0.40000000  0.13333333       0.014
  -0.33333333  0.40000000  0.13333333       0.014
  -0.26666667  0.40000000  0.13333333       0.007
  -0.40000000  0.46666667  0.13333333       0.007
  -0.33333333  0.46666667  0.13333333       0.007
  -0.40000000  0.40000000  0.20000000       0.007
  -0.33333333  0.40000000  0.20000000       0.014
  -0.33333333  0.46666667  0.20000000       0.007
  -0.26666667  0.46666667  0.20000000       0.007
 
 position of ions in fractional coordinates (direct lattice) 
   0.00000000  0.00000000  0.00000000
 
 position of ions in cartesian coordinates  (Angst):
   0.00000000  0.00000000  0.00000000
 
 Euler angles ALPHA=     0.0000000  BETA=     0.0000000

 transformation matrix from SAXIS to cartesian coordinates
 ---------------------------------------------------------
     1.0000000 m_x     0.0000000 m_y     0.0000000 m_z
     0.0000000 m_x     1.0000000 m_y     0.0000000 m_z
     0.0000000 m_x     0.0000000 m_y     1.0000000 m_z

 transformation matrix from cartesian coordinates to SAXIS
 ---------------------------------------------------------
     1.0000000 m_x     0.0000000 m_y     0.0000000 m_z
     0.0000000 m_x     1.0000000 m_y     0.0000000 m_z
     0.0000000 m_x     0.0000000 m_y     1.0000000 m_z




--------------------------------------------------------------------------------------------------------


 k-point  1 :   0.0000 0.0000 0.0000  plane waves:    1218
 k-point  2 :   0.0667 0.0000 0.0000  plane waves:    1212
 k-point  3 :   0.1333 0.0000 0.0000  plane waves:    1182
 k-point  4 :   0.2000 0.0000 0.0000  plane waves:    1184
 k-point  5 :   0.2667 0.0000 0.0000  plane waves:    1214
 k-point  6 :   0.3333 0.0000 0.0000  plane waves:    1202
 k-point  7 :   0.4000 0.0000 0.0000  plane waves:    1208
 k-point  8 :   0.4667 0.0000 0.0000  plane waves:    1196
 k-point  9 :   0.0667 0.0667 0.0000  plane waves:    1202
 k-point 10 :   0.1333 0.0667 0.0000  plane waves:    1194
 k-point 11 :   0.2000 0.0667 0.0000  plane waves:    1184
 k-point 12 :   0.2667 0.0667 0.0000  plane waves:    1194
 k-point 13 :   0.3333 0.0667 0.0000  plane waves:    1208
 k-point 14 :   0.4000 0.0667 0.0000  plane waves:    1204
 k-point 15 :   0.4667 0.0667 0.0000  plane waves:    1204
 k-point 16 :  -0.4667 0.0667 0.0000  plane waves:    1204
 k-point 17 :  -0.4000 0.0667 0.0000  plane waves:    1210
 k-point 18 :  -0.3333 0.0667 0.0000  plane waves:    1214
 k-point 19 :  -0.2667 0.0667 0.0000  plane waves:    1210
 k-point 20 :  -0.2000 0.0667 0.0000  plane waves:    1196
 k-point 21 :  -0.1333 0.0667 0.0000  plane waves:    1186
 k-point 22 :  -0.0667 0.0667 0.0000  plane waves:    1192
 k-point 23 :   0.1333 0.1333 0.0000  plane waves:    1194
 k-point 24 :   0.2000 0.1333 0.0000  plane waves:    1176
 k-point 25 :   0.2667 0.1333 0.0000  plane waves:    1204
 k-point 26 :   0.3333 0.1333 0.0000  plane waves:    1208
 k-point 27 :   0.4000 0.1333 0.0000  plane waves:    1210
 k-point 28 :   0.4667 0.1333 0.0000  plane waves:    1204
 k-point 29 :  -0.4667 0.1333 0.0000  plane waves:    1208
 k-point 30 :  -0.4000 0.1333 0.0000  plane waves:    1204
 k-point 31 :  -0.3333 0.1333 0.0000  plane waves:    1216
 k-point 32 :  -0.2667 0.1333 0.0000  plane waves:    1214
 k-point 33 :  -0.2000 0.1333 0.0000  plane waves:    1206
 k-point 34 :  -0.1333 0.1333 0.0000  plane waves:    1212
 k-point 35 :   0.2000 0.2000 0.0000  plane waves:    1168
 k-point 36 :   0.2667 0.2000 0.0000  plane waves:    1190
 k-point 37 :   0.3333 0.2000 0.0000  plane waves:    1208
 k-point 38 :   0.4000 0.2000 0.0000  plane waves:    1214
 k-point 39 :   0.4667 0.2000 0.0000  plane waves:    1210
 k-point 40 :  -0.4667 0.2000 0.0000  plane waves:    1206
 k-point 41 :  -0.4000 0.2000 0.0000  plane waves:    1194
 k-point 42 :  -0.3333 0.2000 0.0000  plane waves:    1198
 k-point 43 :  -0.2667 0.2000 0.0000  plane waves:    1222
 k-point 44 :  -0.2000 0.2000 0.0000  plane waves:    1204
 k-point 45 :   0.2667 0.2667 0.0000  plane waves:    1184
 k-point 46 :   0.3333 0.2667 0.0000  plane waves:    1210
 k-point 47 :   0.4000 0.2667 0.0000  plane waves:    1216
 k-point 48 :   0.4667 0.2667 0.0000  plane waves:    1214
 k-point 49 :  -0.4667 0.2667 0.0000  plane waves:    1218
 k-point 50 :  -0.4000 0.2667 0.0000  plane waves:    1210
 k-point 51 :  -0.3333 0.2667 0.0000  plane waves:    1208
 k-point 52 :  -0.2667 0.2667 0.0000  plane waves:    1220
 k-point 53 :   0.3333 0.3333 0.0000  plane waves:    1224
 k-point 54 :   0.4000 0.3333 0.0000  plane waves:    1222
 k-point 55 :   0.4667 0.3333 0.0000  plane waves:    1212
 k-point 56 :  -0.4667 0.3333 0.0000  plane waves:    1226
 k-point 57 :  -0.4000 0.3333 0.0000  plane waves:    1224
 k-point 58 :  -0.3333 0.3333 0.0000  plane waves:    1212
 k-point 59 :   0.4000 0.4000 0.0000  plane waves:    1224
 k-point 60 :   0.4667 0.4000 0.0000  plane waves:    1220
 k-point 61 :  -0.4667 0.4000 0.0000  plane waves:    1220
 k-point 62 :  -0.4000 0.4000 0.0000  plane waves:    1228
 k-point 63 :   0.4667 0.4667 0.0000  plane waves:    1240
 k-point 64 :  -0.4667 0.4667 0.0000  plane waves:    1224
 k-point 65 :   0.2000 0.1333 0.0667  plane waves:    1190
 k-point 66 :   0.2667 0.1333 0.0667  plane waves:    1194
 k-point 67 :   0.3333 0.1333 0.0667  plane waves:    1210
 k-point 68 :   0.4000 0.1333 0.0667  plane waves:    1206
 k-point 69 :   0.4667 0.1333 0.0667  plane waves:    1210
 k-point 70 :  -0.4667 0.1333 0.0667  plane waves:    1204
 k-point 71 :   0.2667 0.2000 0.0667  plane waves:    1190
 k-point 72 :   0.3333 0.2000 0.0667  plane waves:    1206
 k-point 73 :   0.4000 0.2000 0.0667  plane waves:    1212
 k-point 74 :   0.4667 0.2000 0.0667  plane waves:    1210
 k-point 75 :  -0.4667 0.2000 0.0667  plane waves:    1204
 k-point 76 :  -0.4000 0.2000 0.0667  plane waves:    1200
 k-point 77 :  -0.3333 0.2000 0.0667  plane waves:    1204
 k-point 78 :  -0.2667 0.2000 0.0667  plane waves:    1214
 k-point 79 :  -0.2000 0.2000 0.0667  plane waves:    1214
 k-point 80 :  -0.1333 0.2000 0.0667  plane waves:    1206
 k-point 81 :   0.3333 0.2667 0.0667  plane waves:    1206
 k-point 82 :   0.4000 0.2667 0.0667  plane waves:    1218
 k-point 83 :   0.4667 0.2667 0.0667  plane waves:    1216
 k-point 84 :  -0.4667 0.2667 0.0667  plane waves:    1212
 k-point 85 :  -0.4000 0.2667 0.0667  plane waves:    1220
 k-point 86 :  -0.3333 0.2667 0.0667  plane waves:    1218
 k-point 87 :  -0.2667 0.2667 0.0667  plane waves:    1214
 k-point 88 :  -0.2000 0.2667 0.0667  plane waves:    1218
 k-point 89 :   0.4000 0.3333 0.0667  plane waves:    1216
 k-point 90 :   0.4667 0.3333 0.0667  plane waves:    1214
 k-point 91 :  -0.4667 0.3333 0.0667  plane waves:    1214
 k-point 92 :  -0.4000 0.3333 0.0667  plane waves:    1220
 k-point 93 :  -0.3333 0.3333 0.0667  plane waves:    1214
 k-point 94 :  -0.2667 0.3333 0.0667  plane waves:    1208
 k-point 95 :   0.4667 0.4000 0.0667  plane waves:    1220
 k-point 96 :  -0.4667 0.4000 0.0667  plane waves:    1220
 k-point 97 :  -0.4000 0.4000 0.0667  plane waves:    1220
 k-point 98 :  -0.3333 0.4000 0.0667  plane waves:    1216
 k-point 99 :  -0.4667 0.4667 0.0667  plane waves:    1220
 k-point ** :  -0.4000 0.4667 0.0667  plane waves:    1228
 k-point ** :   0.4000 0.2667 0.1333  plane waves:    1208
 k-point ** :   0.4667 0.2667 0.1333  plane waves:    1214
 k-point ** :  -0.4667 0.2667 0.1333  plane waves:    1210
 k-point ** :  -0.4000 0.2667 0.1333  plane waves:    1212
 k-point ** :   0.4667 0.3333 0.1333  plane waves:    1214
 k-point ** :  -0.4667 0.3333 0.1333  plane waves:    1206
 k-point ** :  -0.4000 0.3333 0.1333  plane waves:    1220
 k-point ** :  -0.3333 0.3333 0.1333  plane waves:    1216
 k-point ** :  -0.2667 0.3333 0.1333  plane waves:    1210
 k-point ** :  -0.2000 0.3333 0.1333  plane waves:    1218
 k-point ** :  -0.4667 0.4000 0.1333  plane waves:    1210
 k-point ** :  -0.4000 0.4000 0.1333  plane waves:    1218
 k-point ** :  -0.3333 0.4000 0.1333  plane waves:    1220
 k-point ** :  -0.2667 0.4000 0.1333  plane waves:    1212
 k-point ** :  -0.4000 0.4667 0.1333  plane waves:    1226
 k-point ** :  -0.3333 0.4667 0.1333  plane waves:    1226
 k-point ** :  -0.4000 0.4000 0.2000  plane waves:    1218
 k-point ** :  -0.3333 0.4000 0.2000  plane waves:    1224
 k-point ** :  -0.3333 0.4667 0.2000  plane waves:    1224
 k-point ** :  -0.2667 0.4667 0.2000  plane waves:    1222

 maximum and minimum number of plane-waves per node :       166      134

 maximum number of plane-waves:      1240
 maximum index in each direction: 
   IXMAX=    6   IYMAX=    5   IZMAX=    5
   IXMIN=   -6   IYMIN=   -6   IZMIN=   -6


 parallel 3D FFT for wavefunctions:
    minimum data exchange during FFTs selected (reduces bandwidth)
 parallel 3D FFT for charge:
    minimum data exchange during FFTs selected (reduces bandwidth)


 total amount of memory used by VASP MPI-rank0    34080. kBytes
=======================================================================

   base      :      30000. kBytes
   nonl-proj :       1383. kBytes
   fftplans  :        700. kBytes
   grid      :        737. kBytes
   one-center:         62. kBytes
   wavefun   :       1198. kBytes
 
     INWAV:  cpu time    0.0000: real time    0.0000
 Broyden mixing: mesh for mixing (old mesh)
   NGX = 11   NGY = 11   NGZ = 11
  (NGX  = 48   NGY  = 48   NGZ  = 48)
  gives a total of   1331 points

 initial charge density was supplied:
 charge density of overlapping atoms calculated
 number of electron      11.0000000 magnetization       0.0000000      0.0000000      0.0000000
 keeping initial charge density in first step


--------------------------------------------------------------------------------------------------------


 Maximum index for augmentation-charges         8779 (set IRDMAX)


--------------------------------------------------------------------------------------------------------


 First call to EWALD:  gamma=   0.675
 Maximum number of real-space cells 3x 3x 3
 Maximum number of reciprocal cells 3x 3x 3

    FEWALD:  cpu time    0.0079: real time    0.0088


--------------------------------------- Iteration      1(   1)  ---------------------------------------


    POTLOK:  cpu time    0.0263: real time    0.0417
    SETDIJ:  cpu time    0.3900: real time    0.3903
     EDDAV:  cpu time    0.3202: real time    0.3251
 BZINTS: Fermi energy: 18.577134; 11.000000 electrons
         Band energy: 129.948904;  BLOECHL correction: -0.103861
       DOS:  cpu time    0.0531: real time    0.0531
    --------------------------------------------
      LOOP:  cpu time    0.7897: real time    0.8103

 eigenvalue-minimisations  :  5792
 total energy-change (2. order) : 0.6905989E+02  (-0.5934993E+03)
 number of electron      11.0000000 magnetization       0.0000000      0.0000000      0.0000000
 augmentation part       11.0000000 magnetization       0.0000000      0.0000000      0.0000000

 Free energy of the ion-electron system (eV)
  ---------------------------------------------------
  alpha Z        PSCENC =        64.19470378
  Ewald energy   TEWEN  =      -957.56330713
  -Hartree energ DENC   =      -132.13858927
  -exchange      EXHF   =         0.00000000
  -V(xc)+E(xc)   XCENC  =        15.44536944
  PAW double counting   =       874.09750335     -851.01013482
  entropy T*S    EENTRO =         0.00000000
  eigenvalues    EBANDS =       129.94890372
  atomic energy  EATOM  =       926.08544073
  Solvation  Ediel_sol  =         0.00000000
  ---------------------------------------------------
  free energy    TOTEN  =        69.05988980 eV

  energy without entropy =       69.05988980  energy(sigma->0) =       69.05988980


--------------------------------------------------------------------------------------------------------




--------------------------------------- Iteration      1(   2)  ---------------------------------------


     EDDAV:  cpu time    0.3274: real time    0.3291
 BZINTS: Fermi energy:  9.346109; 11.000000 electrons
         Band energy:  58.678593;  BLOECHL correction: -0.032333
       DOS:  cpu time    0.0474: real time    0.0474
    --------------------------------------------
      LOOP:  cpu time    0.3748: real time    0.3764

 eigenvalue-minimisations  :  6928
 total energy-change (2. order) :-0.7127031E+02  (-0.6626335E+02)
 number of electron      11.0000000 magnetization       0.0000000      0.0000000      0.0000000
 augmentation part       11.0000000 magnetization       0.0000000      0.0000000      0.0000000

 Free energy of the ion-electron system (eV)
  ---------------------------------------------------
  alpha Z        PSCENC =        64.19470378
  Ewald energy   TEWEN  =      -957.56330713
  -Hartree energ DENC   =      -132.13858927
  -exchange      EXHF   =         0.00000000
  -V(xc)+E(xc)   XCENC  =        15.44536944
  PAW double counting   =       874.09750335     -851.01013482
  entropy T*S    EENTRO =         0.00000000
  eigenvalues    EBANDS =        58.67859323
  atomic energy  EATOM  =       926.08544073
  Solvation  Ediel_sol  =         0.00000000
  ---------------------------------------------------
  free energy    TOTEN  =        -2.21042069 eV

  energy without entropy =       -2.21042069  energy(sigma->0) =       -2.21042069


--------------------------------------------------------------------------------------------------------




--------------------------------------- Iteration      1(   3)  ---------------------------------------


     EDDAV:  cpu time    0.3292: real time    0.3292
 BZINTS: Fermi energy:  9.193937; 11.000000 electrons
         Band energy:  57.107447;  BLOECHL correction: -0.031976
       DOS:  cpu time    0.0468: real time    0.0514
    --------------------------------------------
      LOOP:  cpu time    0.3759: real time    0.3806

 eigenvalue-minimisations  :  7104
 total energy-change (2. order) :-0.1571146E+01  (-0.1564796E+01)
 number of electron      11.0000000 magnetization       0.0000000      0.0000000      0.0000000
 augmentation part       11.0000000 magnetization       0.0000000      0.0000000      0.0000000

 Free energy of the ion-electron system (eV)
  ---------------------------------------------------
  alpha Z        PSCENC =        64.19470378
  Ewald energy   TEWEN  =      -957.56330713
  -Hartree energ DENC   =      -132.13858927
  -exchange      EXHF   =         0.00000000
  -V(xc)+E(xc)   XCENC  =        15.44536944
  PAW double counting   =       874.09750335     -851.01013482
  entropy T*S    EENTRO =         0.00000000
  eigenvalues    EBANDS =        57.10744747
  atomic energy  EATOM  =       926.08544073
  Solvation  Ediel_sol  =         0.00000000
  ---------------------------------------------------
  free energy    TOTEN  =        -3.78156646 eV

  energy without entropy =       -3.78156646  energy(sigma->0) =       -3.78156646


--------------------------------------------------------------------------------------------------------




--------------------------------------- Iteration      1(   4)  ---------------------------------------


     EDDAV:  cpu time    0.3103: real time    0.3104
 BZINTS: Fermi energy:  9.193125; 11.000000 electrons
         Band energy:  57.099730;  BLOECHL correction: -0.031970
       DOS:  cpu time    0.0459: real time    0.0459
    --------------------------------------------
      LOOP:  cpu time    0.3562: real time    0.3563

 eigenvalue-minimisations  :  6992
 total energy-change (2. order) :-0.7717094E-02  (-0.7716735E-02)
 number of electron      11.0000000 magnetization       0.0000000      0.0000000      0.0000000
 augmentation part       11.0000000 magnetization       0.0000000      0.0000000      0.0000000

 Free energy of the ion-electron system (eV)
  ---------------------------------------------------
  alpha Z        PSCENC =        64.19470378
  Ewald energy   TEWEN  =      -957.56330713
  -Hartree energ DENC   =      -132.13858927
  -exchange      EXHF   =         0.00000000
  -V(xc)+E(xc)   XCENC  =        15.44536944
  PAW double counting   =       874.09750335     -851.01013482
  entropy T*S    EENTRO =         0.00000000
  eigenvalues    EBANDS =        57.09973037
  atomic energy  EATOM  =       926.08544073
  Solvation  Ediel_sol  =         0.00000000
  ---------------------------------------------------
  free energy    TOTEN  =        -3.78928355 eV

  energy without entropy =       -3.78928355  energy(sigma->0) =       -3.78928355


--------------------------------------------------------------------------------------------------------




--------------------------------------- Iteration      1(   5)  ---------------------------------------


     EDDAV:  cpu time    0.3286: real time    0.3286
 BZINTS: Fermi energy:  9.193117; 11.000000 electrons
         Band energy:  57.099649;  BLOECHL correction: -0.031970
       DOS:  cpu time    0.0449: real time    0.0449
 


 total charge     
 
# of ion       s       p       d       tot
------------------------------------------
    1        0.544   0.362   8.599   9.504
 


 magnetization (x)
 
# of ion       s       p       d       tot
------------------------------------------
    1       -0.000   0.000   0.000  -0.000
 


 magnetization (y)
 
# of ion       s       p       d       tot
------------------------------------------
    1        0.000  -0.000   0.000  -0.000
 


 magnetization (z)
 
# of ion       s       p       d       tot
------------------------------------------
    1       -0.000   0.000   0.000   0.000
 
    CHARGE:  cpu time    0.1266: real time    0.1275
    MIXING:  cpu time    0.0092: real time    0.0093
    --------------------------------------------
      LOOP:  cpu time    0.5092: real time    0.5103

 eigenvalue-minimisations  :  7192
 total energy-change (2. order) :-0.8102151E-04  (-0.8102568E-04)
 number of electron      11.0000000 magnetization       0.0000000     -0.0000000     -0.0000000
 augmentation part        3.8515085 magnetization       0.0000000     -0.0000000     -0.0000000

 Broyden mixing:
  rms(total) = 0.89913E+00    rms(broyden)= 0.89913E+00
  rms(prec ) = 0.15302E+01
  weight for this iteration     100.00

 Free energy of the ion-electron system (eV)
  ---------------------------------------------------
  alpha Z        PSCENC =        64.19470378
  Ewald energy   TEWEN  =      -957.56330713
  -Hartree energ DENC   =      -132.13858927
  -exchange      EXHF   =         0.00000000
  -V(xc)+E(xc)   XCENC  =        15.44536944
  PAW double counting   =       874.09750335     -851.01013482
  entropy T*S    EENTRO =         0.00000000
  eigenvalues    EBANDS =        57.09964935
  atomic energy  EATOM  =       926.08544073
  Solvation  Ediel_sol  =         0.00000000
  ---------------------------------------------------
  free energy    TOTEN  =        -3.78936457 eV

  energy without entropy =       -3.78936457  energy(sigma->0) =       -3.78936457


--------------------------------------------------------------------------------------------------------




--------------------------------------- Iteration      1(   6)  ---------------------------------------


    POTLOK:  cpu time    0.0124: real time    0.0147
    SETDIJ:  cpu time    0.3895: real time    0.3896
     EDDAV:  cpu time    0.3349: real time    0.3359
 BZINTS: Fermi energy:  8.891742; 11.000000 electrons
         Band energy:  53.425836;  BLOECHL correction: -0.033728
       DOS:  cpu time    0.0451: real time    0.0451
    CHARGE:  cpu time    0.1267: real time    0.1270
    MIXING:  cpu time    0.0029: real time    0.0029
    --------------------------------------------
      LOOP:  cpu time    0.9115: real time    0.9151

 eigenvalue-minimisations  :  6672
 total energy-change (2. order) : 0.1995585E+00  (-0.1242395E-01)
 number of electron      11.0000000 magnetization      -0.0000000      0.0000000      0.0000000
 augmentation part        3.9288519 magnetization      -0.0000000      0.0000000      0.0000000

 Broyden mixing:
  rms(total) = 0.72349E+00    rms(broyden)= 0.72349E+00
  rms(prec ) = 0.10089E+01
  weight for this iteration     100.00

 eigenvalues of (default mixing * dielectric matrix)
  average eigenvalue GAMMA=   3.5688
  3.5688

 Free energy of the ion-electron system (eV)
  ---------------------------------------------------
  alpha Z        PSCENC =        64.19470378
  Ewald energy   TEWEN  =      -957.56330713
  -Hartree energ DENC   =      -127.43395554
  -exchange      EXHF   =         0.00000000
  -V(xc)+E(xc)   XCENC  =        15.23607304
  PAW double counting   =       902.57770486     -880.11230202
  entropy T*S    EENTRO =         0.00000000
  eigenvalues    EBANDS =        53.42583616
  atomic energy  EATOM  =       926.08544073
  Solvation  Ediel_sol  =         0.00000000
  ---------------------------------------------------
  free energy    TOTEN  =        -3.58980612 eV

  energy without entropy =       -3.58980612  energy(sigma->0) =       -3.58980612


--------------------------------------------------------------------------------------------------------




--------------------------------------- Iteration      1(   7)  ---------------------------------------


    POTLOK:  cpu time    0.0173: real time    0.0192
    SETDIJ:  cpu time    0.3880: real time    0.3880
     EDDAV:  cpu time    0.3043: real time    0.3048
 BZINTS: Fermi energy:  8.514741; 11.000000 electrons
         Band energy:  48.380167;  BLOECHL correction: -0.036009
       DOS:  cpu time    0.0459: real time    0.0459
    CHARGE:  cpu time    0.1143: real time    0.1145
    MIXING:  cpu time    0.0022: real time    0.0026
    --------------------------------------------
      LOOP:  cpu time    0.8720: real time    0.8750

 eigenvalue-minimisations  :  6456
 total energy-change (2. order) : 0.8352385E-01  (-0.2248288E-01)
 number of electron      11.0000000 magnetization       0.0000000     -0.0000000     -0.0000000
 augmentation part        4.0321787 magnetization       0.0000000     -0.0000000     -0.0000000

 Broyden mixing:
  rms(total) = 0.44922E+00    rms(broyden)= 0.44922E+00
  rms(prec ) = 0.45427E+00
  weight for this iteration     100.00

 eigenvalues of (default mixing * dielectric matrix)
  average eigenvalue GAMMA=   4.3655
  1.8653  6.8656

 Free energy of the ion-electron system (eV)
  ---------------------------------------------------
  alpha Z        PSCENC =        64.19470378
  Ewald energy   TEWEN  =      -957.56330713
  -Hartree energ DENC   =      -120.93081114
  -exchange      EXHF   =         0.00000000
  -V(xc)+E(xc)   XCENC  =        14.94825067
  PAW double counting   =       961.60463067     -940.22535636
  entropy T*S    EENTRO =         0.00000000
  eigenvalues    EBANDS =        48.38016652
  atomic energy  EATOM  =       926.08544073
  Solvation  Ediel_sol  =         0.00000000
  ---------------------------------------------------
  free energy    TOTEN  =        -3.50628227 eV

  energy without entropy =       -3.50628227  energy(sigma->0) =       -3.50628227


--------------------------------------------------------------------------------------------------------




--------------------------------------- Iteration      1(   8)  ---------------------------------------


    POTLOK:  cpu time    0.0088: real time    0.0088
    SETDIJ:  cpu time    0.3878: real time    0.3878
     EDDAV:  cpu time    0.3168: real time    0.3173
 BZINTS: Fermi energy:  8.551079; 11.000000 electrons
         Band energy:  48.811812;  BLOECHL correction: -0.035826
       DOS:  cpu time    0.0458: real time    0.0458
    CHARGE:  cpu time    0.1152: real time    0.1154
    MIXING:  cpu time    0.0018: real time    0.0018
    --------------------------------------------
      LOOP:  cpu time    0.8762: real time    0.8768

 eigenvalue-minimisations  :  6608
 total energy-change (2. order) : 0.2762918E-02  (-0.8488430E-03)
 number of electron      11.0000000 magnetization       0.0000000     -0.0000000     -0.0000000
 augmentation part        4.0210036 magnetization       0.0000000     -0.0000000     -0.0000000

 Broyden mixing:
  rms(total) = 0.23311E+00    rms(broyden)= 0.23311E+00
  rms(prec ) = 0.23673E+00
  weight for this iteration     100.00

 eigenvalues of (default mixing * dielectric matrix)
  average eigenvalue GAMMA=   2.6283
  4.4445  1.2517  2.1885

 Free energy of the ion-electron system (eV)
  ---------------------------------------------------
  alpha Z        PSCENC =        64.19470378
  Ewald energy   TEWEN  =      -957.56330713
  -Hartree energ DENC   =      -120.01216903
  -exchange      EXHF   =         0.00000000
  -V(xc)+E(xc)   XCENC  =        14.89866265
  PAW double counting   =      1063.28992977    -1043.20859247
  entropy T*S    EENTRO =         0.00000000
  eigenvalues    EBANDS =        48.81181234
  atomic energy  EATOM  =       926.08544073
  Solvation  Ediel_sol  =         0.00000000
  ---------------------------------------------------
  free energy    TOTEN  =        -3.50351935 eV

  energy without entropy =       -3.50351935  energy(sigma->0) =       -3.50351935


--------------------------------------------------------------------------------------------------------




--------------------------------------- Iteration      1(   9)  ---------------------------------------


    POTLOK:  cpu time    0.0123: real time    0.0177
    SETDIJ:  cpu time    0.3876: real time    0.3876
     EDDAV:  cpu time    0.3139: real time    0.3139
 BZINTS: Fermi energy:  8.555127; 11.000000 electrons
         Band energy:  48.899477;  BLOECHL correction: -0.035775
       DOS:  cpu time    0.0445: real time    0.0445
    CHARGE:  cpu time    0.1143: real time    0.1144
    MIXING:  cpu time    0.0022: real time    0.0022
    --------------------------------------------
      LOOP:  cpu time    0.8748: real time    0.8803

 eigenvalue-minimisations  :  6808
 total energy-change (2. order) : 0.7955459E-03  (-0.1869744E-04)
 number of electron      11.0000000 magnetization       0.0000000     -0.0000000     -0.0000000
 augmentation part        4.0203405 magnetization       0.0000000     -0.0000000     -0.0000000

 Broyden mixing:
  rms(total) = 0.20978E-01    rms(broyden)= 0.20978E-01
  rms(prec ) = 0.21794E-01
  weight for this iteration     100.00

 eigenvalues of (default mixing * dielectric matrix)
  average eigenvalue GAMMA=   2.4143
  5.0844  2.1647  1.1578  1.2505

 Free energy of the ion-electron system (eV)
  ---------------------------------------------------
  alpha Z        PSCENC =        64.19470378
  Ewald energy   TEWEN  =      -957.56330713
  -Hartree energ DENC   =      -120.64577530
  -exchange      EXHF   =         0.00000000
  -V(xc)+E(xc)   XCENC  =        14.92946860
  PAW double counting   =      1023.59260710    -1002.99533839
  entropy T*S    EENTRO =         0.00000000
  eigenvalues    EBANDS =        48.89947680
  atomic energy  EATOM  =       926.08544073
  Solvation  Ediel_sol  =         0.00000000
  ---------------------------------------------------
  free energy    TOTEN  =        -3.50272381 eV

  energy without entropy =       -3.50272381  energy(sigma->0) =       -3.50272381


--------------------------------------------------------------------------------------------------------




--------------------------------------- Iteration      1(  10)  ---------------------------------------


    POTLOK:  cpu time    0.0086: real time    0.0086
    SETDIJ:  cpu time    0.3868: real time    0.3869
     EDDAV:  cpu time    0.3330: real time    0.3331
 BZINTS: Fermi energy:  8.554978; 11.000000 electrons
         Band energy:  48.895152;  BLOECHL correction: -0.035776
       DOS:  cpu time    0.0460: real time    0.0460
 


 total charge     
 
# of ion       s       p       d       tot
------------------------------------------
    1        0.522   0.323   8.736   9.581
 


 magnetization (x)
 
# of ion       s       p       d       tot
------------------------------------------
    1       -0.000   0.000   0.000   0.000
 


 magnetization (y)
 
# of ion       s       p       d       tot
------------------------------------------
    1        0.000   0.000  -0.000   0.000
 


 magnetization (z)
 
# of ion       s       p       d       tot
------------------------------------------
    1       -0.000  -0.000  -0.000  -0.000
 
    CHARGE:  cpu time    0.1157: real time    0.1158
    MIXING:  cpu time    0.0018: real time    0.0018
    --------------------------------------------
      LOOP:  cpu time    0.8919: real time    0.8921

 eigenvalue-minimisations  :  7088
 total energy-change (2. order) :-0.5845347E-05  (-0.5487243E-06)
 number of electron      11.0000000 magnetization      -0.0000000      0.0000000      0.0000000
 augmentation part        4.0202477 magnetization      -0.0000000      0.0000000      0.0000000

 Broyden mixing:
  rms(total) = 0.30520E-02    rms(broyden)= 0.30520E-02
  rms(prec ) = 0.36703E-02
  weight for this iteration     100.00

 eigenvalues of (default mixing * dielectric matrix)
  average eigenvalue GAMMA=   2.4632
  5.0906  2.8507  2.1529  1.2566  0.9650

 Free energy of the ion-electron system (eV)
  ---------------------------------------------------
  alpha Z        PSCENC =        64.19470378
  Ewald energy   TEWEN  =      -957.56330713
  -Hartree energ DENC   =      -120.59317475
  -exchange      EXHF   =         0.00000000
  -V(xc)+E(xc)   XCENC  =        14.92678365
  PAW double counting   =      1027.74134544    -1007.18967363
  entropy T*S    EENTRO =         0.00000000
  eigenvalues    EBANDS =        48.89515226
  atomic energy  EATOM  =       926.08544073
  Solvation  Ediel_sol  =         0.00000000
  ---------------------------------------------------
  free energy    TOTEN  =        -3.50272965 eV

  energy without entropy =       -3.50272965  energy(sigma->0) =       -3.50272965


--------------------------------------------------------------------------------------------------------




--------------------------------------- Iteration      1(  11)  ---------------------------------------


    POTLOK:  cpu time    0.0148: real time    0.0167
    SETDIJ:  cpu time    0.3904: real time    0.3905
     EDDAV:  cpu time    0.3321: real time    0.3322
 BZINTS: Fermi energy:  8.554747; 11.000000 electrons
         Band energy:  48.892767;  BLOECHL correction: -0.035776
       DOS:  cpu time    0.0440: real time    0.0440
    CHARGE:  cpu time    0.1200: real time    0.1202
    MIXING:  cpu time    0.0021: real time    0.0021
    --------------------------------------------
      LOOP:  cpu time    0.9035: real time    0.9057

 eigenvalue-minimisations  :  7016
 total energy-change (2. order) :-0.1856754E-05  (-0.3165990E-07)
 number of electron      11.0000000 magnetization       0.0000000     -0.0000000     -0.0000000
 augmentation part        4.0202270 magnetization       0.0000000     -0.0000000     -0.0000000

 Broyden mixing:
  rms(total) = 0.32503E-02    rms(broyden)= 0.32503E-02
  rms(prec ) = 0.33280E-02
  weight for this iteration     100.00

 eigenvalues of (default mixing * dielectric matrix)
  average eigenvalue GAMMA=   2.5717
  4.9346  5.1003  2.1640  1.2515  1.0064  0.9735

 Free energy of the ion-electron system (eV)
  ---------------------------------------------------
  alpha Z        PSCENC =        64.19470378
  Ewald energy   TEWEN  =      -957.56330713
  -Hartree energ DENC   =      -120.59207631
  -exchange      EXHF   =         0.00000000
  -V(xc)+E(xc)   XCENC  =        14.92660066
  PAW double counting   =      1028.55029836    -1007.99715839
  entropy T*S    EENTRO =         0.00000000
  eigenvalues    EBANDS =        48.89276680
  atomic energy  EATOM  =       926.08544073
  Solvation  Ediel_sol  =         0.00000000
  ---------------------------------------------------
  free energy    TOTEN  =        -3.50273151 eV

  energy without entropy =       -3.50273151  energy(sigma->0) =       -3.50273151


--------------------------------------------------------------------------------------------------------




--------------------------------------- Iteration      1(  12)  ---------------------------------------


    POTLOK:  cpu time    0.0177: real time    0.0198
    SETDIJ:  cpu time    0.3872: real time    0.3873
     EDDAV:  cpu time    0.3122: real time    0.3122
 BZINTS: Fermi energy:  8.554388; 11.000000 electrons
         Band energy:  48.888861;  BLOECHL correction: -0.035776
       DOS:  cpu time    0.0449: real time    0.0449
    CHARGE:  cpu time    0.1156: real time    0.1157
    MIXING:  cpu time    0.0018: real time    0.0018
    --------------------------------------------
      LOOP:  cpu time    0.8793: real time    0.8816

 eigenvalue-minimisations  :  6760
 total energy-change (2. order) : 0.1020371E-06  (-0.1334194E-07)
 number of electron      11.0000000 magnetization      -0.0000000      0.0000000      0.0000000
 augmentation part        4.0202687 magnetization      -0.0000000      0.0000000      0.0000000

 Broyden mixing:
  rms(total) = 0.35352E-04    rms(broyden)= 0.35351E-04
  rms(prec ) = 0.51368E-04
  weight for this iteration     100.00

 eigenvalues of (default mixing * dielectric matrix)
  average eigenvalue GAMMA=   2.4371
  5.1531  4.8483  2.1630  0.9764  1.0400  1.2504  1.6288

 Free energy of the ion-electron system (eV)
  ---------------------------------------------------
  alpha Z        PSCENC =        64.19470378
  Ewald energy   TEWEN  =      -957.56330713
  -Hartree energ DENC   =      -120.59638745
  -exchange      EXHF   =         0.00000000
  -V(xc)+E(xc)   XCENC  =        14.92672733
  PAW double counting   =      1028.66647351    -1008.10524320
  entropy T*S    EENTRO =         0.00000000
  eigenvalues    EBANDS =        48.88886103
  atomic energy  EATOM  =       926.08544073
[...]
 pseudopotential strength for first ion, spin component:           4
 -4.116   0.000  -0.000   0.000  -0.000   0.000  -0.000   0.000  -0.000  -0.602  -4.350   0.000  -0.000   0.000  -0.000   0.000
 -0.000   0.000  -4.116   0.000   0.000   0.000  -0.000  -0.301  -0.000   0.000  -0.000   0.000  -4.350   0.000   0.000   0.000
 -0.000   0.000   0.000   0.000  -4.104   0.000   0.000   0.000   0.000   0.000  -0.000   0.000   0.000   0.000  -4.338   0.000
 -0.000   0.000  -0.000   0.301   0.000   0.000  -4.116   0.000   0.000   0.000  -0.000   0.000  -0.000   0.292   0.000   0.000
 -0.000   0.602  -0.000   0.000   0.000   0.000   0.000   0.000  -4.104   0.000  -0.000   0.584  -0.000   0.000   0.000   0.000
 -4.350   0.000  -0.000   0.000  -0.000   0.000  -0.000   0.000  -0.000  -0.584  -4.566   0.000  -0.000   0.000  -0.000   0.000
 -0.000   0.000  -4.350   0.000   0.000   0.000  -0.000  -0.292  -0.000   0.000  -0.000   0.000  -4.566   0.000   0.000   0.000
 -0.000   0.000   0.000   0.000  -4.338   0.000   0.000   0.000   0.000   0.000  -0.000   0.000   0.000   0.000  -4.554   0.000
 -0.000   0.000  -0.000   0.292   0.000   0.000  -4.350   0.000   0.000   0.000  -0.000   0.000  -0.000   0.284   0.000   0.000
 -0.000   0.584  -0.000   0.000   0.000   0.000   0.000   0.000  -4.338   0.000  -0.000   0.567  -0.000   0.000   0.000   0.000
 -0.000   0.000  -0.000   0.000  -0.000   0.000  -0.000   0.000   0.000   0.000  -0.000   0.000  -0.000   0.000  -0.000   0.000
 -0.000   0.000  -0.000   0.000  -0.000   0.000  -0.000   0.000   0.000   0.000  -0.000   0.000  -0.000   0.000  -0.000   0.000
  0.000   0.000   0.000   0.000  -0.000   0.000  -0.000   0.000  -0.000   0.000   0.000   0.000   0.000   0.000  -0.000   0.000
  0.000   0.000   0.000   0.000   0.000   0.000  -0.000   0.000   0.000   0.000   0.000   0.000   0.000   0.000   0.000   0.000
 -0.000   0.000  -0.000   0.000   0.000   0.000   0.000   0.000  -0.000   0.000  -0.000   0.000   0.000   0.000   0.000   0.000
  0.000   0.000   0.000   0.000  -0.000   0.000   0.000   0.000  -0.000   0.000   0.000   0.000   0.000   0.000  -0.000   0.000
 -0.000   0.000   0.000   0.000   0.000   0.000  -0.000   0.000   0.000   0.000  -0.000   0.000   0.000   0.000   0.000   0.000
 -0.000   0.000   0.000   0.000   0.000   0.000   0.000   0.000  -0.000   0.000  -0.000   0.000   0.000   0.000   0.000   0.000
 total augmentation occupancy for first ion, spin component:           1
  4.975   0.000   0.000   0.000  -0.000  -2.903  -0.000  -0.000   0.000   0.000  -0.000   0.000   0.000   0.000   0.000   0.000
  0.000   4.975  -0.000  -0.000   0.000  -0.000  -2.903  -0.000   0.000   0.000  -0.000  -0.000   0.000   0.000   0.000   0.000
  0.000   0.000   4.774   0.000  -0.000  -0.000   0.000  -2.503   0.000   0.000   0.000  -0.000   0.000   0.000   0.000   0.000
  0.000  -0.000   0.000   4.975   0.000   0.000  -0.000   0.000  -2.903   0.000  -0.000   0.000   0.000   0.000   0.000   0.000
  0.000   0.000  -0.000   0.000   4.774   0.000   0.000   0.000   0.000  -2.503  -0.000  -0.000   0.000   0.000   0.000   0.000
 -2.903  -0.000   0.000  -0.000   0.000   2.741  -0.000   0.000  -0.000  -0.000   0.000  -0.000   0.000   0.000   0.000   0.000
 -0.000  -2.903  -0.000  -0.000  -0.000  -0.000   2.741   0.000  -0.000  -0.000  -0.000  -0.000   0.000   0.000   0.000   0.000
 -0.000  -0.000  -2.503   0.000   0.000   0.000   0.000   2.193  -0.000   0.000  -0.000   0.000   0.000   0.000   0.000   0.000
  0.000   0.000  -0.000  -2.903   0.000   0.000   0.000  -0.000   2.741  -0.000   0.000   0.000   0.000   0.000   0.000   0.000
  0.000  -0.000   0.000  -0.000  -2.503   0.000   0.000  -0.000   0.000   2.193   0.000   0.000   0.000   0.000   0.000   0.000
 -0.000  -0.000   0.000  -0.000  -0.000   0.000  -0.000  -0.000   0.000   0.000   2.398  -0.595   0.000   0.000   0.000   0.000
  0.000  -0.000  -0.000   0.000  -0.000  -0.000  -0.000   0.000   0.000   0.000  -0.595   0.194   0.000   0.000   0.000   0.000
  0.000   0.000   0.000   0.000   0.000   0.000   0.000   0.000   0.000   0.000   0.000   0.000   0.168   0.000   0.000  -0.005
  0.000   0.000   0.000   0.000   0.000   0.000   0.000   0.000   0.000   0.000   0.000   0.000   0.000   0.168   0.000  -0.000
  0.000   0.000   0.000   0.000   0.000   0.000   0.000   0.000   0.000   0.000   0.000   0.000   0.000   0.000   0.168  -0.000
  0.000   0.000   0.000   0.000   0.000   0.000   0.000   0.000   0.000   0.000   0.000   0.000  -0.005   0.000   0.000   0.001
  0.000   0.000   0.000   0.000   0.000   0.000   0.000   0.000   0.000   0.000   0.000   0.000   0.000  -0.005  -0.000  -0.000
  0.000   0.000   0.000   0.000   0.000   0.000   0.000   0.000   0.000   0.000   0.000   0.000   0.000   0.000  -0.005   0.000
 total augmentation occupancy for first ion, spin component:           2
  0.000  -0.000  -0.000   0.000   0.000  -0.000   0.000  -0.000   0.000   0.000   0.000  -0.000   0.000   0.000   0.000   0.000
  0.000   0.000  -0.000   0.000  -0.000   0.000   0.000   0.000   0.000   0.000   0.000  -0.000   0.000   0.000   0.000   0.000
  0.000  -0.000   0.000  -0.000  -0.000  -0.000   0.000   0.000  -0.000   0.000   0.000   0.000   0.000   0.000   0.000   0.000
 -0.000  -0.000   0.000   0.000   0.000  -0.000   0.000   0.000   0.000   0.000   0.000  -0.000   0.000   0.000   0.000   0.000
  0.000  -0.000   0.000  -0.000  -0.000   0.000   0.000   0.000   0.000   0.000  -0.000   0.000   0.000   0.000   0.000   0.000
  0.000   0.000  -0.000  -0.000   0.000   0.000   0.000   0.000  -0.000   0.000  -0.000  -0.000   0.000   0.000   0.000   0.000
  0.000  -0.000   0.000  -0.000   0.000  -0.000  -0.000  -0.000   0.000  -0.000   0.000   0.000   0.000   0.000   0.000   0.000
  0.000   0.000   0.000   0.000  -0.000  -0.000  -0.000  -0.000   0.000  -0.000  -0.000  -0.000   0.000   0.000   0.000   0.000
  0.000   0.000   0.000   0.000   0.000   0.000   0.000   0.000  -0.000  -0.000   0.000  -0.000   0.000   0.000   0.000   0.000
  0.000   0.000   0.000   0.000  -0.000  -0.000  -0.000  -0.000   0.000  -0.000  -0.000  -0.000   0.000   0.000   0.000   0.000
  0.000   0.000   0.000   0.000   0.000  -0.000   0.000  -0.000   0.000   0.000   0.000  -0.000   0.000   0.000   0.000   0.000
 -0.000   0.000  -0.000  -0.000  -0.000  -0.000   0.000  -0.000   0.000  -0.000   0.000  -0.000   0.000   0.000   0.000   0.000
  0.000   0.000   0.000   0.000   0.000   0.000   0.000   0.000   0.000   0.000   0.000   0.000   0.000  -0.000   0.000  -0.000
  0.000   0.000   0.000   0.000   0.000   0.000   0.000   0.000   0.000   0.000   0.000   0.000   0.000   0.000  -0.000  -0.000
  0.000   0.000   0.000   0.000   0.000   0.000   0.000   0.000   0.000   0.000   0.000   0.000   0.000   0.000   0.000   0.000
  0.000   0.000   0.000   0.000   0.000   0.000   0.000   0.000   0.000   0.000   0.000   0.000  -0.000  -0.000   0.000   0.000
  0.000   0.000   0.000   0.000   0.000   0.000   0.000   0.000   0.000   0.000   0.000   0.000   0.000   0.000  -0.000  -0.000
  0.000   0.000   0.000   0.000   0.000   0.000   0.000   0.000   0.000   0.000   0.000   0.000  -0.000   0.000   0.000   0.000
 total augmentation occupancy for first ion, spin component:           3
 -0.000  -0.000   0.000   0.000  -0.000   0.000  -0.000  -0.000  -0.000  -0.000   0.000  -0.000   0.000   0.000   0.000   0.000
  0.000   0.000   0.000   0.000   0.000   0.000  -0.000  -0.000  -0.000  -0.000  -0.000   0.000   0.000   0.000   0.000   0.000
 -0.000  -0.000  -0.000   0.000  -0.000   0.000  -0.000   0.000  -0.000   0.000  -0.000  -0.000   0.000   0.000   0.000   0.000
  0.000   0.000   0.000  -0.000  -0.000  -0.000   0.000  -0.000  -0.000   0.000   0.000  -0.000   0.000   0.000   0.000   0.000
  0.000  -0.000   0.000  -0.000   0.000   0.000   0.000   0.000   0.000   0.000  -0.000   0.000   0.000   0.000   0.000   0.000
  0.000   0.000   0.000   0.000   0.000  -0.000   0.000   0.000   0.000   0.000   0.000   0.000   0.000   0.000   0.000   0.000
 -0.000   0.000   0.000   0.000   0.000  -0.000   0.000  -0.000  -0.000  -0.000  -0.000   0.000   0.000   0.000   0.000   0.000
  0.000   0.000   0.000  -0.000  -0.000  -0.000  -0.000  -0.000   0.000  -0.000  -0.000   0.000   0.000   0.000   0.000   0.000
 -0.000   0.000  -0.000   0.000   0.000   0.000   0.000   0.000  -0.000  -0.000   0.000  -0.000   0.000   0.000   0.000   0.000
  0.000   0.000  -0.000   0.000  -0.000  -0.000  -0.000  -0.000  -0.000   0.000  -0.000   0.000   0.000   0.000   0.000   0.000
 -0.000  -0.000  -0.000  -0.000   0.000   0.000  -0.000  -0.000   0.000   0.000   0.000   0.000   0.000   0.000   0.000   0.000
  0.000   0.000   0.000   0.000  -0.000   0.000   0.000   0.000  -0.000  -0.000   0.000  -0.000   0.000   0.000   0.000   0.000
  0.000   0.000   0.000   0.000   0.000   0.000   0.000   0.000   0.000   0.000   0.000   0.000   0.000   0.000   0.000  -0.000
  0.000   0.000   0.000   0.000   0.000   0.000   0.000   0.000   0.000   0.000   0.000   0.000   0.000   0.000  -0.000   0.000
  0.000   0.000   0.000   0.000   0.000   0.000   0.000   0.000   0.000   0.000   0.000   0.000  -0.000   0.000   0.000   0.000
  0.000   0.000   0.000   0.000   0.000   0.000   0.000   0.000   0.000   0.000   0.000   0.000   0.000  -0.000   0.000   0.000
  0.000   0.000   0.000   0.000   0.000   0.000   0.000   0.000   0.000   0.000   0.000   0.000   0.000   0.000  -0.000   0.000
  0.000   0.000   0.000   0.000   0.000   0.000   0.000   0.000   0.000   0.000   0.000   0.000  -0.000   0.000   0.000   0.000
 total augmentation occupancy for first ion, spin component:           4
  0.000  -0.000  -0.000   0.000   0.000   0.000   0.000   0.000   0.000  -0.000   0.000   0.000   0.000   0.000   0.000   0.000
 -0.000  -0.000   0.000  -0.000   0.000  -0.000   0.000   0.000  -0.000  -0.000  -0.000  -0.000   0.000   0.000   0.000   0.000
  0.000   0.000  -0.000   0.000   0.000   0.000   0.000   0.000   0.000  -0.000  -0.000   0.000   0.000   0.000   0.000   0.000
  0.000   0.000   0.000  -0.000   0.000   0.000   0.000   0.000  -0.000  -0.000   0.000   0.000   0.000   0.000   0.000   0.000
  0.000   0.000  -0.000   0.000  -0.000  -0.000   0.000   0.000   0.000   0.000   0.000   0.000   0.000   0.000   0.000   0.000
  0.000  -0.000   0.000   0.000  -0.000   0.000  -0.000  -0.000   0.000   0.000   0.000   0.000   0.000   0.000   0.000   0.000
  0.000  -0.000   0.000   0.000   0.000   0.000  -0.000  -0.000   0.000  -0.000   0.000   0.000   0.000   0.000   0.000   0.000
 -0.000   0.000  -0.000   0.000  -0.000  -0.000  -0.000   0.000   0.000  -0.000  -0.000   0.000   0.000   0.000   0.000   0.000
  0.000  -0.000   0.000   0.000   0.000   0.000  -0.000   0.000   0.000  -0.000   0.000  -0.000   0.000   0.000   0.000   0.000
 -0.000   0.000   0.000   0.000   0.000   0.000  -0.000  -0.000   0.000  -0.000  -0.000   0.000   0.000   0.000   0.000   0.000
  0.000  -0.000   0.000  -0.000   0.000   0.000   0.000   0.000  -0.000   0.000   0.000  -0.000   0.000   0.000   0.000   0.000
  0.000   0.000   0.000   0.000  -0.000  -0.000   0.000  -0.000   0.000  -0.000   0.000  -0.000   0.000   0.000   0.000   0.000
  0.000   0.000   0.000   0.000   0.000   0.000   0.000   0.000   0.000   0.000   0.000   0.000   0.000  -0.000   0.000   0.000
  0.000   0.000   0.000   0.000   0.000   0.000   0.000   0.000   0.000   0.000   0.000   0.000  -0.000  -0.000  -0.000  -0.000
  0.000   0.000   0.000   0.000   0.000   0.000   0.000   0.000   0.000   0.000   0.000   0.000  -0.000  -0.000   0.000   0.000
  0.000   0.000   0.000   0.000   0.000   0.000   0.000   0.000   0.000   0.000   0.000   0.000  -0.000   0.000   0.000   0.000
  0.000   0.000   0.000   0.000   0.000   0.000   0.000   0.000   0.000   0.000   0.000   0.000   0.000   0.000  -0.000  -0.000
  0.000   0.000   0.000   0.000   0.000   0.000   0.000   0.000   0.000   0.000   0.000   0.000  -0.000   0.000   0.000   0.000


------------------------ aborting loop because EDIFF is reached ----------------------------------------


 


 total charge     
 
# of ion       s       p       d       tot
------------------------------------------
    1        0.522   0.323   8.736   9.581
 


 magnetization (x)
 
# of ion       s       p       d       tot
------------------------------------------
    1       -0.000  -0.000   0.000  -0.000
 


 magnetization (y)
 
# of ion       s       p       d       tot
------------------------------------------
    1       -0.000   0.000   0.000  -0.000
 


 magnetization (z)
 
# of ion       s       p       d       tot
------------------------------------------
    1        0.000   0.000   0.000   0.000
 
    CHARGE:  cpu time    0.1160: real time    0.1161
    FORLOC:  cpu time    0.0007: real time    0.0007
    FORNL :  cpu time    0.5644: real time    0.5646
    STRESS:  cpu time    1.8032: real time    1.8042
    FORCOR:  cpu time    0.0164: real time    0.0175
    FORHAR:  cpu time    0.0010: real time    0.0012
    MIXING:  cpu time    0.0021: real time    0.0021
    OFIELD:  cpu time    0.0004: real time    0.0009

  FORCE on cell =-STRESS in cart. coord.  units (eV):
  Direction    XX          YY          ZZ          XY          YZ          ZX
  --------------------------------------------------------------------------------------
  Alpha Z    64.19470    64.19470    64.19470
  Ewald    -319.18778  -319.18778  -319.18778     0.00000    -0.00000    -0.00000
  Hartree    40.19885    40.19885    40.19885     0.00000     0.00000     0.00000
  E(xc)     -49.47790   -49.47790   -49.47790     0.00000     0.00000     0.00000
  Local      43.78699    43.78699    43.78699    -0.00001    -0.00001    -0.00001
  n-local    -1.27598     2.57192    -3.11019     3.28356    -3.28801     2.51706
  augment    67.80720    67.80720    67.80720     0.00001     0.00001     0.00001
  Kinetic   152.64824   151.90041   154.42603     0.47900     1.41250    -1.76754
  Fock        0.00000     0.00000     0.00000     0.00000     0.00000     0.00000
  -------------------------------------------------------------------------------------
  Total      -0.29113    -0.29113    -0.29113    -0.00000     0.00000     0.00000
  in kB     -25.70689   -25.70689   -25.70689    -0.00000     0.00000     0.00000
  external pressure =      -25.71 kB  Pullay stress =        0.00 kB


 VOLUME and BASIS-vectors are now :
 -----------------------------------------------------------------------------
  energy-cutoff  :      600.00
  volume of cell :       18.14
      direct lattice vectors                 reciprocal lattice vectors
     0.000000000  2.085644245  2.085644245    -0.239734078  0.239734078  0.239734078
     2.085644245  0.000000000  2.085644245     0.239734078 -0.239734078  0.239734078
     2.085644245  2.085644245  0.000000000     0.239734078  0.239734078 -0.239734078

  length of vectors
     2.949546378  2.949546378  2.949546378     0.415231603  0.415231603  0.415231603


 FORCES acting on ions
    electron-ion (+dipol)            ewald-force                    non-local-force                 convergence-correction
 -----------------------------------------------------------------------------------------------
   -.185E-13 -.179E-13 -.178E-13   -.259E-15 0.167E-14 -.129E-14   0.207E-24 0.000E+00 0.000E+00   0.280E-14 0.108E-13 0.199E-14
 -----------------------------------------------------------------------------------------------
   -.185E-13 -.179E-13 -.178E-13   -.259E-15 0.167E-14 -.129E-14   0.207E-24 0.000E+00 0.000E+00   0.280E-14 0.108E-13 0.199E-14
 
 
 POSITION                                       TOTAL-FORCE (eV/Angst)
 -----------------------------------------------------------------------------------
      0.00000      0.00000      0.00000        -0.000000      0.000000     -0.000000
 -----------------------------------------------------------------------------------
    total drift:                               -0.000000     -0.000000     -0.000000


--------------------------------------------------------------------------------------------------------



  FREE ENERGIE OF THE ION-ELECTRON SYSTEM (eV)
  ---------------------------------------------------
  free  energy   TOTEN  =        -3.50273141 eV

  energy  without entropy=       -3.50273141  energy(sigma->0) =       -3.50273141
 


--------------------------------------------------------------------------------------------------------


    POTLOK:  cpu time    0.3978: real time    0.3978


--------------------------------------------------------------------------------------------------------


     LOOP+:  cpu time   12.9372: real time   13.0554
    4ORBIT:  cpu time    0.0000: real time    0.0000

 Spin-Orbit-Coupling matrix elements

 Ion:    1  E_soc:     -0.5695521
 l=   1
     0.0000000    -0.0236577    -0.0236577
    -0.0236577     0.0000000    -0.0236577
    -0.0236577    -0.0236577     0.0000000
 l=   2
     0.0000000    -0.0155578     0.0000000    -0.0155578    -0.0557098
    -0.0155578     0.0000000    -0.0417823    -0.0155578    -0.0139274
     0.0000000    -0.0417823     0.0000000    -0.0417823     0.0000000
    -0.0155578    -0.0155578    -0.0417823     0.0000000    -0.0139274
    -0.0557098    -0.0139274     0.0000000    -0.0139274     0.0000000
 l=   3
     0.0000000     0.0000000     0.0000000     0.0000000     0.0000000     0.0000000     0.0000000
     0.0000000     0.0000000     0.0000000     0.0000000     0.0000000     0.0000000     0.0000000
     0.0000000     0.0000000     0.0000000     0.0000000     0.0000000     0.0000000     0.0000000
     0.0000000     0.0000000     0.0000000     0.0000000     0.0000000     0.0000000     0.0000000
     0.0000000     0.0000000     0.0000000     0.0000000     0.0000000     0.0000000     0.0000000
     0.0000000     0.0000000     0.0000000     0.0000000     0.0000000     0.0000000     0.0000000
     0.0000000     0.0000000     0.0000000     0.0000000     0.0000000     0.0000000     0.0000000
 


 total charge     
 
# of ion       s       p       d       tot
------------------------------------------
    1        0.522   0.323   8.736   9.581
 


 magnetization (x)
 
# of ion       s       p       d       tot
------------------------------------------
    1       -0.000  -0.000   0.000  -0.000
 


 magnetization (y)
 
# of ion       s       p       d       tot
------------------------------------------
    1       -0.000   0.000   0.000  -0.000
 


 magnetization (z)
 
# of ion       s       p       d       tot
------------------------------------------
    1        0.000   0.000   0.000   0.000
 
 BZINTS: Fermi energy:  8.554397; 11.000000 electrons
         Band energy:  48.888985;  BLOECHL correction: -0.035776
 BZINTS: Fermi energy:  8.554397; 11.000000 electrons
         Band energy:  48.888985;  BLOECHL correction: -0.035776
 BZINTS: Fermi energy:  8.554397; 11.000000 electrons
         Band energy:  48.888985;  BLOECHL correction: -0.035776
 BZINTS: Fermi energy:  8.554397; 11.000000 electrons
         Band energy:  48.888985;  BLOECHL correction: -0.035776

 total amount of memory used by VASP MPI-rank0    34080. kBytes
=======================================================================

   base      :      30000. kBytes
   nonl-proj :       1383. kBytes
   fftplans  :        700. kBytes
   grid      :        737. kBytes
   one-center:         62. kBytes
   wavefun   :       1198. kBytes
 
  
  
 General timing and accounting informations for this job:
 ========================================================
  
                  Total CPU time used (sec):       19.255
                            User time (sec):       14.450
                          System time (sec):        4.805
                         Elapsed time (sec):       22.093
  
                   Maximum memory used (kb):      252404.
                   Average memory used (kb):           0.
  
                          Minor page faults:       101402
                          Major page faults:            0
                 Voluntary context switches:         3626
