PROCAR lm decomposed
# of k-points:  120         # of bands:   24         # of ions:    1

 k-point     1 :    0.00000000 0.00000000 0.00000000     weight = 0.00029630

band     1 # energy   -0.75060395 # occ.  1.00000000
 
ion      s     py     pz     px    dxy    dyz    dz2    dxz  x2-y2    tot
    1  0.573  0.000  0.000  0.000  0.000  0.000  0.000  0.000  0.000  0.573
    1  0.449 -0.000 -0.000  0.000  0.000  0.000 -0.000  0.000 -0.000  0.449
    1  0.233 -0.000  0.000 -0.000  0.000  0.000 -0.000  0.000  0.000  0.233
    1 -0.270  0.000  0.000  0.000 -0.000 -0.000  0.000 -0.000 -0.000 -0.270
 
band     2 # energy   -0.75060395 # occ.  1.00000000
 
ion      s     py     pz     px    dxy    dyz    dz2    dxz  x2-y2    tot
    1  0.573  0.000  0.000  0.000  0.000  0.000  0.000  0.000  0.000  0.573
    1 -0.449 -0.000 -0.000  0.000 -0.000 -0.000  0.000 -0.000  0.000 -0.449
    1 -0.233 -0.000  0.000  0.000 -0.000 -0.000  0.000 -0.000 -0.000 -0.233
    1  0.270  0.000 -0.000 -0.000  0.000  0.000 -0.000  0.000  0.000  0.270
 
band     3 # energy    3.43661538 # occ.  1.00000000
 
ion      s     py     pz     px    dxy    dyz    dz2    dxz  x2-y2    tot
    1  0.000  0.000  0.000  0.000  0.270  0.264  0.065  0.265  0.067  0.931
    1  0.000 -0.000 -0.000 -0.000  0.191 -0.003  0.046 -0.186 -0.047  0.001
    1 -0.000  0.000  0.000  0.000 -0.191  0.186 -0.046  0.002  0.047 -0.002
    1 -0.000  0.000 -0.000  0.000 -0.001 -0.188 -0.000  0.189 -0.000 -0.001
 
band     4 # energy    3.43661538 # occ.  1.00000000
 
ion      s     py     pz     px    dxy    dyz    dz2    dxz  x2-y2    tot
    1  0.000  0.000  0.000  0.000  0.270  0.264  0.065  0.265  0.067  0.931
    1 -0.000 -0.000 -0.000 -0.000 -0.191  0.003 -0.046  0.186  0.047 -0.001
    1  0.000 -0.000 -0.000 -0.000  0.191 -0.186  0.046 -0.002 -0.047  0.002
    1  0.000  0.000 -0.000  0.000  0.001  0.188  0.000 -0.189  0.000  0.001
 
band     5 # energy    3.43661542 # occ.  1.00000000
 
ion      s     py     pz     px    dxy    dyz    dz2    dxz  x2-y2    tot
    1  0.000  0.000  0.000  0.000  0.263  0.268  0.067  0.268  0.065  0.931
    1  0.000 -0.000 -0.000  0.000 -0.118  0.214  0.008  0.105  0.029  0.239
    1 -0.000 -0.000 -0.000  0.000 -0.211  0.106 -0.016  0.118  0.052  0.049
    1 -0.000  0.000 -0.000  0.000 -0.103 -0.122  0.064 -0.217 -0.026 -0.403
 
band     6 # energy    3.43661542 # occ.  1.00000000
 
ion      s     py     pz     px    dxy    dyz    dz2    dxz  x2-y2    tot
    1  0.000  0.000  0.000  0.000  0.263  0.268  0.067  0.268  0.065  0.931
    1 -0.000 -0.000 -0.000  0.000  0.118 -0.214 -0.008 -0.105 -0.029 -0.239
    1  0.000 -0.000  0.000  0.000  0.211 -0.106  0.016 -0.118 -0.052 -0.049
    1  0.000 -0.000 -0.000 -0.000  0.103  0.122 -0.064  0.217  0.026  0.403
 
band     7 # energy    4.64148287 # occ.  1.00000000
 
ion      s     py     pz     px    dxy    dyz    dz2    dxz  x2-y2    tot
    1  0.000  0.000  0.000  0.000  0.308  0.308  0.000  0.308  0.000  0.925
    1 -0.000 -0.000 -0.000 -0.000  0.159 -0.159  0.000  0.159  0.000  0.159
    1 -0.000 -0.000 -0.000 -0.000  0.261  0.261  0.000 -0.261  0.000  0.261
    1 -0.000 -0.000 -0.000 -0.000 -0.042  0.042  0.000  0.042  0.000  0.042
 
band     8 # energy    4.64148287 # occ.  1.00000000
 
ion      s     py     pz     px    dxy    dyz    dz2    dxz  x2-y2    tot
    1  0.000  0.000  0.000  0.000  0.308  0.308  0.000  0.308  0.000  0.925
    1  0.000  0.000 -0.000 -0.000 -0.159  0.159 -0.000 -0.159 -0.000 -0.159
    1  0.000 -0.000 -0.000 -0.000 -0.261 -0.261 -0.000  0.261 -0.000 -0.261
    1  0.000 -0.000 -0.000 -0.000  0.042 -0.042 -0.000 -0.042 -0.000 -0.042
 
band     9 # energy    5.70434856 # occ.  1.00000000
 
ion      s     py     pz     px    dxy    dyz    dz2    dxz  x2-y2    tot
    1  0.000  0.000  0.000  0.000  0.040  0.044  0.436  0.044  0.393  0.957
    1  0.000  0.000  0.000  0.000 -0.015  0.039  0.152  0.008  0.146  0.329
    1  0.000 -0.000  0.000  0.000 -0.037  0.009 -0.081  0.015  0.356  0.263
    1 -0.000 -0.000 -0.000  0.000 -0.008 -0.017  0.401 -0.040 -0.078  0.258
 
band    10 # energy    5.70434856 # occ.  1.00000000
 
ion      s     py     pz     px    dxy    dyz    dz2    dxz  x2-y2    tot
    1  0.000  0.000  0.000  0.000  0.040  0.044  0.436  0.044  0.393  0.957
    1  0.000  0.000 -0.000 -0.000  0.015 -0.039 -0.152 -0.008 -0.146 -0.329
    1  0.000  0.000 -0.000  0.000  0.037 -0.009  0.081 -0.015 -0.356 -0.263
    1  0.000 -0.000 -0.000  0.000  0.008  0.017 -0.401  0.040  0.078 -0.258
 
band    11 # energy    5.70434860 # occ.  1.00000000
 
ion      s     py     pz     px    dxy    dyz    dz2    dxz  x2-y2    tot
    1  0.000  0.000  0.000  0.000  0.045  0.041  0.393  0.041  0.436  0.957
    1 -0.000  0.000  0.000  0.000  0.032 -0.002  0.277 -0.028 -0.310 -0.031
    1  0.000 -0.000  0.000 -0.000 -0.032  0.029 -0.279  0.001  0.307  0.027
    1 -0.000  0.000  0.000 -0.000 -0.000 -0.030 -0.000  0.030 -0.001 -0.001
 
band    12 # energy    5.70434860 # occ.  1.00000000
 
ion      s     py     pz     px    dxy    dyz    dz2    dxz  x2-y2    tot
    1  0.000  0.000  0.000  0.000  0.045  0.041  0.393  0.041  0.436  0.957
    1  0.000 -0.000  0.000 -0.000 -0.032  0.002 -0.277  0.028  0.310  0.031
    1 -0.000  0.000  0.000  0.000  0.032 -0.029  0.279 -0.001 -0.307 -0.027
    1 -0.000  0.000 -0.000  0.000  0.000  0.030  0.000 -0.030  0.001  0.001
 
band    13 # energy   23.05260590 # occ.  0.00000000
 
ion      s     py     pz     px    dxy    dyz    dz2    dxz  x2-y2    tot
    1  0.000  0.000  0.000  0.000  0.000  0.000  0.000  0.000  0.000  0.000
    1 -0.000 -0.000  0.000  0.000  0.000 -0.000 -0.000  0.000 -0.000  0.000
    1 -0.000 -0.000  0.000  0.000  0.000 -0.000  0.000 -0.000 -0.000  0.000
    1  0.000  0.000 -0.000  0.000  0.000 -0.000 -0.000 -0.000  0.000  0.000
 
band    14 # energy   23.05260590 # occ.  0.00000000
 
ion      s     py     pz     px    dxy    dyz    dz2    dxz  x2-y2    tot
    1  0.000  0.000  0.000  0.000  0.000  0.000  0.000  0.000  0.000  0.000
    1  0.000  0.000 -0.000 -0.000  0.000 -0.000 -0.000  0.000 -0.000  0.000
    1  0.000  0.000 -0.000 -0.000 -0.000 -0.000  0.000  0.000 -0.000  0.000
    1 -0.000 -0.000 -0.000 -0.000  0.000 -0.000  0.000  0.000  0.000 -0.000
 
band    15 # energy   25.80435385 # occ.  0.00000000
 
ion      s     py     pz     px    dxy    dyz    dz2    dxz  x2-y2    tot
    1  0.000  0.124  0.124  0.124  0.000  0.000  0.000  0.000  0.000  0.372
    1  0.000 -0.068 -0.068  0.068  0.000  0.000 -0.000  0.000  0.000 -0.068
    1 -0.000  0.022 -0.022 -0.022 -0.000 -0.000 -0.000 -0.000  0.000 -0.022
    1 -0.000 -0.101  0.101 -0.101 -0.000 -0.000  0.000  0.000  0.000 -0.101
 
band    16 # energy   25.80435385 # occ.  0.00000000
 
ion      s     py     pz     px    dxy    dyz    dz2    dxz  x2-y2    tot
    1  0.000  0.124  0.124  0.124  0.000  0.000  0.000  0.000  0.000  0.372
    1  0.000  0.068  0.068 -0.068  0.000  0.000 -0.000  0.000  0.000  0.068
    1 -0.000 -0.022  0.022  0.022  0.000  0.000 -0.000 -0.000 -0.000  0.022
    1 -0.000  0.101 -0.101  0.101  0.000 -0.000  0.000  0.000  0.000  0.101
 
band    17 # energy   26.97617615 # occ.  0.00000000
 
ion      s     py     pz     px    dxy    dyz    dz2    dxz  x2-y2    tot
    1  0.000  0.060  0.060  0.060  0.000  0.000  0.000  0.000  0.000  0.179
    1 -0.000 -0.050 -0.029 -0.014 -0.000  0.000 -0.000  0.000 -0.000 -0.093
    1 -0.000  0.028  0.014 -0.050  0.000 -0.000 -0.000 -0.000 -0.000 -0.008
    1  0.000  0.014  0.050 -0.028 -0.000  0.000 -0.000 -0.000  0.000  0.036
 
band    18 # energy   26.97617615 # occ.  0.00000000
 
ion      s     py     pz     px    dxy    dyz    dz2    dxz  x2-y2    tot
    1  0.000  0.060  0.060  0.060  0.000  0.000  0.000  0.000  0.000  0.179
    1 -0.000  0.050  0.029  0.014  0.000  0.000 -0.000  0.000 -0.000  0.093
    1 -0.000 -0.028 -0.014  0.050 -0.000 -0.000 -0.000 -0.000  0.000  0.008
    1  0.000 -0.014 -0.050  0.028 -0.000  0.000 -0.000  0.000  0.000 -0.036
 
band    19 # energy   26.97617621 # occ.  0.00000000
 
ion      s     py     pz     px    dxy    dyz    dz2    dxz  x2-y2    tot
    1  0.000  0.060  0.060  0.060  0.000  0.000  0.000  0.000  0.000  0.179
    1 -0.000 -0.042  0.042 -0.000 -0.000  0.000 -0.000  0.000 -0.000 -0.001
    1 -0.000 -0.000 -0.042  0.042 -0.000 -0.000 -0.000 -0.000  0.000 -0.001
    1  0.000  0.042 -0.000 -0.042 -0.000  0.000 -0.000 -0.000  0.000 -0.001
 
band    20 # energy   26.97617621 # occ.  0.00000000
 
ion      s     py     pz     px    dxy    dyz    dz2    dxz  x2-y2    tot
    1  0.000  0.060  0.060  0.060  0.000  0.000  0.000  0.000  0.000  0.179
    1 -0.000  0.042 -0.042  0.000 -0.000  0.000 -0.000 -0.000 -0.000  0.001
    1 -0.000  0.000  0.042 -0.042 -0.000 -0.000 -0.000 -0.000  0.000  0.001
    1  0.000 -0.042  0.000  0.042 -0.000 -0.000 -0.000 -0.000  0.000  0.001
 
band    21 # energy   31.40922638 # occ.  0.00000000
 
ion      s     py     pz     px    dxy    dyz    dz2    dxz  x2-y2    tot
    1  0.077  0.000  0.000  0.000  0.000  0.000  0.000  0.000  0.000  0.077
    1 -0.052 -0.000 -0.000  0.000 -0.000 -0.000  0.000 -0.000  0.000 -0.052
    1 -0.013 -0.000  0.000  0.000 -0.000 -0.000  0.000 -0.000  0.000 -0.013
    1 -0.055 -0.000  0.000 -0.000 -0.000 -0.000  0.000 -0.000  0.000 -0.055
 
band    22 # energy   31.40922638 # occ.  0.00000000
 
ion      s     py     pz     px    dxy    dyz    dz2    dxz  x2-y2    tot
    1  0.077  0.000  0.000  0.000  0.000  0.000  0.000  0.000  0.000  0.077
    1  0.052 -0.000 -0.000  0.000  0.000  0.000 -0.000  0.000 -0.000  0.052
    1  0.013  0.000 -0.000 -0.000  0.000  0.000 -0.000 -0.000  0.000  0.013
    1  0.055 -0.000 -0.000 -0.000  0.000  0.000 -0.000  0.000 -0.000  0.055
 
band    23 # energy   34.29562388 # occ.  0.00000000
 
ion      s     py     pz     px    dxy    dyz    dz2    dxz  x2-y2    tot
    1  0.000  0.196  0.196  0.196  0.000  0.000  0.000  0.000  0.000  0.587
    1 -0.000  0.153  0.153 -0.153 -0.000 -0.000  0.000  0.000 -0.000  0.153
    1  0.000  0.066 -0.066 -0.066 -0.000 -0.000 -0.000  0.000  0.000 -0.066
    1  0.000 -0.102  0.102 -0.102  0.000 -0.000  0.000 -0.000  0.000 -0.102
 
band    24 # energy   34.29562388 # occ.  0.00000000
 
ion      s     py     pz     px    dxy    dyz    dz2    dxz  x2-y2    tot
    1  0.000  0.196  0.196  0.196  0.000  0.000  0.000  0.000  0.000  0.587
    1  0.000 -0.153 -0.153  0.153  0.000  0.000 -0.000 -0.000 -0.000 -0.153
    1  0.000 -0.066  0.066  0.066  0.000 -0.000 -0.000 -0.000  0.000  0.066
    1  0.000  0.102 -0.102  0.102 -0.000  0.000 -0.000  0.000 -0.000  0.102
 

 k-point     2 :    0.06666667 0.00000000 0.00000000     weight = 0.00237037

band     1 # energy   -0.60492342 # occ.  1.00000000
 
ion      s     py     pz     px    dxy    dyz    dz2    dxz  x2-y2    tot
    1  0.567  0.002  0.002  0.002  0.000  0.000  0.000  0.000  0.000  0.573
    1  0.471  0.002  0.002  0.001  0.000  0.000 -0.000  0.000 -0.000  0.476
    1 -0.023 -0.000 -0.000  0.000  0.000 -0.000  0.000 -0.000 -0.000 -0.023
    1  0.315  0.001  0.001  0.001  0.000  0.000 -0.000  0.000  0.000  0.318
 
band     2 # energy   -0.60492342 # occ.  1.00000000
 
ion      s     py     pz     px    dxy    dyz    dz2    dxz  x2-y2    tot
    1  0.567  0.002  0.002  0.002  0.000  0.000  0.000  0.000  0.000  0.573
    1 -0.471 -0.002 -0.002 -0.001 -0.000 -0.000  0.000 -0.000  0.000 -0.476
    1  0.023  0.000  0.000 -0.000 -0.000  0.000 -0.000  0.000  0.000  0.023
    1 -0.315 -0.001 -0.001 -0.001 -0.000 -0.000  0.000 -0.000 -0.000 -0.318
 
band     3 # energy    3.43944465 # occ.  1.00000000
 
ion      s     py     pz     px    dxy    dyz    dz2    dxz  x2-y2    tot
    1  0.000  0.000  0.000  0.000  0.267  0.267  0.063  0.267  0.063  0.929
    1  0.000  0.000 -0.000  0.000  0.177  0.001  0.045 -0.175 -0.045  0.002
    1  0.000  0.000  0.000  0.000  0.013  0.188  0.000  0.201 -0.000  0.403
    1 -0.000 -0.000 -0.000 -0.000 -0.200 -0.189  0.045 -0.012 -0.045 -0.402
 
band     4 # energy    3.43944465 # occ.  1.00000000
 
ion      s     py     pz     px    dxy    dyz    dz2    dxz  x2-y2    tot
    1  0.000  0.000  0.000  0.000  0.267  0.267  0.063  0.267  0.063  0.929
    1 -0.000 -0.000  0.000 -0.000 -0.177 -0.001 -0.045  0.175  0.045 -0.002
    1 -0.000 -0.000 -0.000 -0.000 -0.013 -0.188 -0.000 -0.201  0.000 -0.403
    1  0.000  0.000  0.000  0.000  0.200  0.189 -0.045  0.012  0.045  0.402
 
band     5 # energy    3.45689946 # occ.  1.00000000
 
ion      s     py     pz     px    dxy    dyz    dz2    dxz  x2-y2    tot
    1  0.000  0.000  0.000  0.000  0.262  0.262  0.073  0.262  0.073  0.931
    1  0.000  0.000 -0.000  0.000 -0.186  0.001 -0.051  0.184  0.052 -0.001
    1  0.000 -0.000 -0.000  0.000 -0.184  0.186 -0.052 -0.001  0.051  0.001
    1 -0.000  0.000 -0.000 -0.000 -0.001 -0.184 -0.000  0.186 -0.000  0.001
 
band     6 # energy    3.45689946 # occ.  1.00000000
 
ion      s     py     pz     px    dxy    dyz    dz2    dxz  x2-y2    tot
    1  0.000  0.000  0.000  0.000  0.262  0.262  0.073  0.262  0.073  0.931
    1 -0.000 -0.000  0.000 -0.000  0.186 -0.001  0.051 -0.184 -0.052  0.001
    1 -0.000  0.000  0.000 -0.000  0.184 -0.186  0.052  0.001 -0.051 -0.001
    1  0.000 -0.000  0.000  0.000  0.001  0.184  0.000 -0.186  0.000 -0.001
 
band     7 # energy    4.66250722 # occ.  1.00000000
 
ion      s     py     pz     px    dxy    dyz    dz2    dxz  x2-y2    tot
    1  0.000  0.000  0.000  0.000  0.308  0.308  0.000  0.308  0.000  0.924
    1 -0.000  0.000 -0.000 -0.000 -0.058  0.053 -0.000 -0.028  0.000 -0.033
    1 -0.000 -0.000 -0.000 -0.000 -0.246 -0.255 -0.000  0.272  0.000 -0.230
    1  0.000 -0.000  0.000  0.000 -0.175  0.165 -0.000  0.142  0.000  0.132
 
band     8 # energy    4.66250722 # occ.  1.00000000
 
ion      s     py     pz     px    dxy    dyz    dz2    dxz  x2-y2    tot
    1  0.000  0.000  0.000  0.000  0.308  0.308  0.000  0.308  0.000  0.924
    1  0.000 -0.000  0.000  0.000  0.058 -0.053  0.000  0.028 -0.000  0.033
    1  0.000  0.000  0.000  0.000  0.246  0.255  0.000 -0.272 -0.000  0.230
    1 -0.000  0.000 -0.000 -0.000  0.175 -0.165  0.000 -0.142 -0.000 -0.132
 
band     9 # energy    5.66056677 # occ.  1.00000000
 
ion      s     py     pz     px    dxy    dyz    dz2    dxz  x2-y2    tot
    1  0.000  0.000  0.000  0.000  0.040  0.040  0.416  0.040  0.416  0.954
    1  0.000  0.000 -0.000  0.000  0.027  0.001  0.298 -0.026 -0.298  0.002
    1  0.000  0.000  0.000  0.000  0.003  0.028  0.007  0.031 -0.007  0.062
    1 -0.000 -0.000 -0.000 -0.000 -0.030 -0.029  0.291 -0.002 -0.291 -0.061
 
band    10 # energy    5.66056677 # occ.  1.00000000
 
ion      s     py     pz     px    dxy    dyz    dz2    dxz  x2-y2    tot
    1  0.000  0.000  0.000  0.000  0.040  0.040  0.416  0.040  0.416  0.954
    1 -0.000 -0.000  0.000 -0.000 -0.027 -0.001 -0.298  0.026  0.298 -0.002
    1 -0.000 -0.000 -0.000 -0.000 -0.003 -0.028 -0.007 -0.031  0.007 -0.062
    1  0.000  0.000  0.000  0.000  0.030  0.029 -0.291  0.002  0.291  0.061
 
band    11 # energy    5.71476644 # occ.  1.00000000
 
ion      s     py     pz     px    dxy    dyz    dz2    dxz  x2-y2    tot
    1  0.000  0.000  0.000  0.000  0.047  0.047  0.407  0.047  0.407  0.955
    1 -0.000 -0.000  0.000 -0.000  0.033 -0.000  0.288 -0.033 -0.288 -0.000
    1 -0.000  0.000  0.000 -0.000  0.033 -0.033  0.288  0.000 -0.288  0.000
    1  0.000 -0.000  0.000  0.000  0.000  0.033 -0.000 -0.033  0.000  0.000
 
band    12 # energy    5.71476644 # occ.  1.00000000
 
ion      s     py     pz     px    dxy    dyz    dz2    dxz  x2-y2    tot
    1  0.000  0.000  0.000  0.000  0.047  0.047  0.407  0.047  0.407  0.955
    1  0.000  0.000 -0.000  0.000 -0.033  0.000 -0.288  0.033  0.288  0.000
    1  0.000 -0.000 -0.000  0.000 -0.033  0.033 -0.288 -0.000  0.288 -0.000
    1 -0.000  0.000 -0.000 -0.000 -0.000 -0.033  0.000  0.033 -0.000 -0.000
 
band    13 # energy   23.20320477 # occ.  0.00000000
 
ion      s     py     pz     px    dxy    dyz    dz2    dxz  x2-y2    tot
    1  0.000  0.001  0.001  0.001  0.006  0.006  0.000  0.006  0.000  0.021
    1  0.000 -0.000  0.000  0.000  0.000  0.000 -0.000  0.001  0.000  0.002
    1 -0.000 -0.000 -0.001 -0.000 -0.004 -0.004  0.000 -0.004 -0.000 -0.014
    1  0.000  0.001  0.000  0.001  0.005  0.004 -0.000  0.004  0.000  0.015
 
band    14 # energy   23.20320477 # occ.  0.00000000
 
ion      s     py     pz     px    dxy    dyz    dz2    dxz  x2-y2    tot
    1  0.000  0.001  0.001  0.001  0.006  0.006  0.000  0.006  0.000  0.021
    1 -0.000  0.000 -0.000 -0.000 -0.000 -0.000  0.000 -0.001 -0.000 -0.002
    1  0.000  0.000  0.001  0.000  0.004  0.004 -0.000  0.004  0.000  0.014
    1 -0.000 -0.001 -0.000 -0.001 -0.005 -0.004  0.000 -0.004 -0.000 -0.015
 
band    15 # energy   25.31846374 # occ.  0.00000000
 
ion      s     py     pz     px    dxy    dyz    dz2    dxz  x2-y2    tot
    1  0.016  0.109  0.109  0.109  0.006  0.006  0.000  0.006  0.000  0.361
    1 -0.000  0.027 -0.023 -0.002  0.002  0.000  0.000 -0.002 -0.000  0.001
    1  0.012 -0.027  0.102  0.078  0.002  0.004 -0.000  0.005 -0.000  0.175
    1 -0.011 -0.102  0.030 -0.077 -0.005 -0.004  0.000 -0.002 -0.000 -0.171
 
band    16 # energy   25.31846374 # occ.  0.00000000
 
ion      s     py     pz     px    dxy    dyz    dz2    dxz  x2-y2    tot
    1  0.016  0.109  0.109  0.109  0.006  0.006  0.000  0.006  0.000  0.361
    1  0.000 -0.027  0.023  0.002 -0.002 -0.000 -0.000  0.002  0.000 -0.001
    1 -0.012  0.027 -0.102 -0.078 -0.002 -0.004  0.000 -0.005  0.000 -0.175
    1  0.011  0.102 -0.030  0.077  0.005  0.004 -0.000  0.002  0.000  0.171
 
band    17 # energy   26.61859191 # occ.  0.00000000
 
ion      s     py     pz     px    dxy    dyz    dz2    dxz  x2-y2    tot
    1  0.004  0.076  0.076  0.076  0.003  0.003  0.002  0.003  0.002  0.244
    1 -0.000 -0.071  0.069  0.003 -0.000  0.000  0.001  0.000 -0.001  0.001
    1  0.003 -0.024 -0.021  0.056  0.002  0.002 -0.000 -0.002  0.000  0.016
    1 -0.003  0.011  0.023 -0.051  0.002 -0.002  0.001 -0.002 -0.001 -0.022
 
band    18 # energy   26.61859191 # occ.  0.00000000
 
ion      s     py     pz     px    dxy    dyz    dz2    dxz  x2-y2    tot
    1  0.004  0.076  0.076  0.076  0.003  0.003  0.002  0.003  0.002  0.244
    1  0.000  0.071 -0.069 -0.003  0.000 -0.000 -0.001 -0.000  0.001 -0.001
    1 -0.003  0.024  0.021 -0.056 -0.002 -0.002  0.000  0.002 -0.000 -0.016
    1  0.003 -0.011 -0.023  0.051 -0.002  0.002 -0.001  0.002  0.001  0.022
 
band    19 # energy   27.13283262 # occ.  0.00000000
 
ion      s     py     pz     px    dxy    dyz    dz2    dxz  x2-y2    tot
    1  0.000  0.062  0.062  0.062  0.002  0.002  0.004  0.002  0.004  0.199
    1  0.000 -0.044  0.044 -0.000  0.002 -0.000  0.002 -0.002 -0.002 -0.000
    1 -0.000  0.000  0.044 -0.044  0.002 -0.002  0.002  0.000 -0.002  0.000
    1  0.000 -0.044  0.000  0.044  0.000  0.002  0.000 -0.002 -0.000  0.000
 
band    20 # energy   27.13283262 # occ.  0.00000000
 
ion      s     py     pz     px    dxy    dyz    dz2    dxz  x2-y2    tot
    1  0.000  0.062  0.062  0.062  0.002  0.002  0.004  0.002  0.004  0.199
    1 -0.000  0.044 -0.044  0.000 -0.002  0.000 -0.002  0.002  0.002  0.000
    1  0.000 -0.000 -0.044  0.044 -0.002  0.002 -0.002 -0.000  0.002 -0.000
    1 -0.000  0.044 -0.000 -0.044 -0.000 -0.002 -0.000  0.002  0.000 -0.000
 
band    21 # energy   31.88839168 # occ.  0.00000000
 
ion      s     py     pz     px    dxy    dyz    dz2    dxz  x2-y2    tot
    1  0.025  0.061  0.061  0.061  0.020  0.020  0.001  0.020  0.001  0.269
    1  0.006 -0.001  0.028  0.007 -0.002  0.004 -0.001  0.010  0.001  0.051
    1 -0.016 -0.010 -0.053 -0.033 -0.006 -0.014  0.000 -0.014 -0.000 -0.147
    1  0.018  0.059  0.002  0.051  0.019  0.013 -0.001  0.009  0.001  0.170
 
band    22 # energy   31.88839168 # occ.  0.00000000
 
ion      s     py     pz     px    dxy    dyz    dz2    dxz  x2-y2    tot
    1  0.025  0.061  0.061  0.061  0.020  0.020  0.001  0.020  0.001  0.269
    1 -0.006  0.001 -0.028 -0.007  0.002 -0.004  0.001 -0.010 -0.001 -0.051
    1  0.016  0.010  0.053  0.033  0.006  0.014 -0.000  0.014  0.000  0.147
    1 -0.018 -0.059 -0.002 -0.051 -0.019 -0.013  0.001 -0.009 -0.001 -0.170
 
band    23 # energy   33.36141011 # occ.  0.00000000
 
ion      s     py     pz     px    dxy    dyz    dz2    dxz  x2-y2    tot
    1  0.041  0.067  0.067  0.067  0.037  0.037  0.005  0.037  0.005  0.361
    1 -0.035 -0.034 -0.035  0.037 -0.029 -0.011 -0.002 -0.002  0.004 -0.108
    1 -0.020  0.056 -0.056 -0.055 -0.021  0.010 -0.004 -0.027  0.002 -0.113
    1  0.006 -0.015  0.013 -0.013 -0.009  0.033 -0.001 -0.025 -0.001 -0.011
 
band    24 # energy   33.36141011 # occ.  0.00000000
 
ion      s     py     pz     px    dxy    dyz    dz2    dxz  x2-y2    tot
    1  0.041  0.067  0.067  0.067  0.037  0.037  0.005  0.037  0.005  0.361
    1  0.035  0.034  0.035 -0.037  0.029  0.011  0.002  0.002 -0.004  0.108
    1  0.020 -0.056  0.056  0.055  0.021 -0.010  0.004  0.027 -0.002  0.113
    1 -0.006  0.015 -0.013  0.013  0.009 -0.033  0.001  0.025  0.001  0.011
 

 k-point     3 :    0.13333333 0.00000000 0.00000000     weight = 0.00237037

band     1 # energy   -0.18508520 # occ.  1.00000000
 
ion      s     py     pz     px    dxy    dyz    dz2    dxz  x2-y2    tot
    1  0.548  0.007  0.007  0.007  0.002  0.002  0.000  0.002  0.000  0.574
    1  0.035  0.000  0.001  0.000 -0.000  0.000 -0.000  0.000  0.000  0.037
    1 -0.176 -0.002 -0.003 -0.002 -0.000 -0.001  0.000 -0.001 -0.000 -0.184
    1  0.517  0.007  0.006  0.006  0.002  0.002 -0.000  0.002  0.000  0.542
 
band     2 # energy   -0.18508520 # occ.  1.00000000
 
ion      s     py     pz     px    dxy    dyz    dz2    dxz  x2-y2    tot
    1  0.548  0.007  0.007  0.007  0.002  0.002  0.000  0.002  0.000  0.574
    1 -0.035 -0.000 -0.001 -0.000  0.000 -0.000  0.000 -0.000 -0.000 -0.037
    1  0.176  0.002  0.003  0.002  0.000  0.001 -0.000  0.001  0.000  0.184
    1 -0.517 -0.007 -0.006 -0.006 -0.002 -0.002  0.000 -0.002 -0.000 -0.542
 
band     3 # energy    3.44083973 # occ.  1.00000000
 
ion      s     py     pz     px    dxy    dyz    dz2    dxz  x2-y2    tot
    1  0.002  0.002  0.002  0.002  0.267  0.267  0.056  0.267  0.056  0.919
    1  0.000 -0.000  0.000  0.000 -0.129 -0.008 -0.042  0.156  0.037  0.014
    1 -0.001 -0.001 -0.002 -0.001 -0.061 -0.202  0.002 -0.214  0.003 -0.476
    1  0.001  0.002  0.000  0.001  0.225  0.174 -0.037  0.030  0.042  0.438
 
band     4 # energy    3.44083973 # occ.  1.00000000
 
ion      s     py     pz     px    dxy    dyz    dz2    dxz  x2-y2    tot
    1  0.002  0.002  0.002  0.002  0.267  0.267  0.056  0.267  0.056  0.919
    1 -0.000  0.000 -0.000 -0.000  0.129  0.008  0.042 -0.156 -0.037 -0.014
    1  0.001  0.001  0.002  0.001  0.061  0.202 -0.002  0.214 -0.003  0.476
    1 -0.001 -0.002 -0.000 -0.001 -0.225 -0.174  0.037 -0.030 -0.042 -0.438
 
band     5 # energy    3.50039570 # occ.  1.00000000
 
ion      s     py     pz     px    dxy    dyz    dz2    dxz  x2-y2    tot
    1  0.000  0.000  0.000  0.000  0.248  0.248  0.094  0.248  0.094  0.932
    1  0.000  0.000 -0.000 -0.000 -0.175 -0.000 -0.066  0.175  0.066 -0.000
    1  0.000  0.000 -0.000  0.000 -0.175  0.175 -0.066  0.000  0.066  0.000
    1 -0.000  0.000  0.000 -0.000  0.000 -0.175 -0.000  0.175  0.000  0.000
 
band     6 # energy    3.50039570 # occ.  1.00000000
 
ion      s     py     pz     px    dxy    dyz    dz2    dxz  x2-y2    tot
    1  0.000  0.000  0.000  0.000  0.248  0.248  0.094  0.248  0.094  0.932
    1 -0.000 -0.000  0.000  0.000  0.175  0.000  0.066 -0.175 -0.066  0.000
    1 -0.000 -0.000  0.000 -0.000  0.175 -0.175  0.066 -0.000 -0.066 -0.000
    1  0.000 -0.000 -0.000  0.000 -0.000  0.175  0.000 -0.175 -0.000 -0.000
 
band     7 # energy    4.74653152 # occ.  1.00000000
 
ion      s     py     pz     px    dxy    dyz    dz2    dxz  x2-y2    tot
    1  0.000  0.001  0.001  0.001  0.306  0.306  0.001  0.306  0.001  0.923
    1  0.000 -0.000  0.001 -0.000  0.036  0.012  0.001 -0.089 -0.001 -0.041
    1  0.000  0.000 -0.000  0.000  0.175  0.239  0.000 -0.263  0.000  0.153
    1 -0.000  0.000 -0.000 -0.001  0.248 -0.191  0.001 -0.130 -0.001 -0.074
 
band     8 # energy    4.74653152 # occ.  1.00000000
 
ion      s     py     pz     px    dxy    dyz    dz2    dxz  x2-y2    tot
    1  0.000  0.001  0.001  0.001  0.306  0.306  0.001  0.306  0.001  0.923
    1 -0.000  0.000 -0.001  0.000 -0.036 -0.012 -0.001  0.089  0.001  0.041
    1 -0.000 -0.000  0.000 -0.000 -0.175 -0.239 -0.000  0.263 -0.000 -0.153
    1  0.000 -0.000  0.000  0.001 -0.248  0.191 -0.001  0.130  0.001  0.074
 
band     9 # energy    5.54996670 # occ.  1.00000000
 
ion      s     py     pz     px    dxy    dyz    dz2    dxz  x2-y2    tot
    1  0.000  0.000  0.000  0.000  0.036  0.036  0.420  0.036  0.420  0.948
    1  0.000  0.000  0.000  0.000  0.018 -0.002  0.214 -0.007 -0.343 -0.119
    1  0.000  0.000  0.000  0.000  0.004  0.018  0.050  0.029  0.079  0.181
    1 -0.000 -0.000 -0.000 -0.000 -0.030 -0.031  0.358 -0.020 -0.229  0.047
 
band    10 # energy    5.54996670 # occ.  1.00000000
 
ion      s     py     pz     px    dxy    dyz    dz2    dxz  x2-y2    tot
    1  0.000  0.000  0.000  0.000  0.036  0.036  0.420  0.036  0.420  0.948
    1 -0.000 -0.000 -0.000 -0.000 -0.018  0.002 -0.214  0.007  0.343  0.119
    1 -0.000 -0.000 -0.000 -0.000 -0.004 -0.018 -0.050 -0.029 -0.079 -0.181
    1  0.000  0.000  0.000  0.000  0.030  0.031 -0.358  0.020  0.229 -0.047
 
band    11 # energy    5.76520751 # occ.  1.00000000
 
ion      s     py     pz     px    dxy    dyz    dz2    dxz  x2-y2    tot
    1  0.000  0.000  0.000  0.000  0.061  0.061  0.384  0.061  0.384  0.952
    1  0.000 -0.000  0.000 -0.000  0.043 -0.000  0.271 -0.043 -0.271 -0.000
    1 -0.000  0.000  0.000 -0.000  0.043 -0.043  0.272  0.000 -0.272  0.000
    1  0.000 -0.000  0.000  0.000  0.000  0.043 -0.000 -0.043  0.000  0.000
 
band    12 # energy    5.76520751 # occ.  1.00000000
 
ion      s     py     pz     px    dxy    dyz    dz2    dxz  x2-y2    tot
    1  0.000  0.000  0.000  0.000  0.061  0.061  0.384  0.061  0.384  0.952
    1  0.000  0.000 -0.000  0.000 -0.043  0.000 -0.271  0.043  0.271  0.000
    1  0.000 -0.000 -0.000  0.000 -0.043  0.043 -0.272 -0.000  0.272 -0.000
    1  0.000  0.000 -0.000 -0.000 -0.000 -0.043  0.000  0.043 -0.000 -0.000
 
band    13 # energy   23.08508104 # occ.  0.00000000
 
ion      s     py     pz     px    dxy    dyz    dz2    dxz  x2-y2    tot
    1  0.029  0.063  0.063  0.063  0.038  0.038  0.000  0.038  0.000  0.332
    1 -0.000 -0.014  0.014 -0.000 -0.003 -0.000 -0.000  0.003  0.000 -0.000
    1 -0.020 -0.017 -0.059 -0.044 -0.024 -0.027 -0.000 -0.030 -0.000 -0.220
    1  0.020  0.059  0.017  0.044  0.030  0.027 -0.000  0.024  0.000  0.221
 
band    14 # energy   23.08508104 # occ.  0.00000000
 
ion      s     py     pz     px    dxy    dyz    dz2    dxz  x2-y2    tot
    1  0.029  0.063  0.063  0.063  0.038  0.038  0.000  0.038  0.000  0.332
    1  0.000  0.014 -0.014  0.000  0.003  0.000  0.000 -0.003 -0.000  0.000
    1  0.020  0.017  0.059  0.044  0.024  0.027  0.000  0.030  0.000  0.220
    1 -0.020 -0.059 -0.017 -0.044 -0.030 -0.027  0.000 -0.024 -0.000 -0.221
 
band    15 # energy   24.02296343 # occ.  0.00000000
 
ion      s     py     pz     px    dxy    dyz    dz2    dxz  x2-y2    tot
    1  0.023  0.033  0.033  0.033  0.000  0.000  0.000  0.000  0.000  0.122
    1 -0.000  0.008 -0.008 -0.000 -0.000 -0.000  0.000  0.000 -0.000 -0.000
    1  0.016  0.005  0.031  0.023  0.000  0.000 -0.000 -0.000 -0.000  0.076
    1 -0.016 -0.031 -0.005 -0.023  0.000 -0.000  0.000 -0.000 -0.000 -0.076
 
band    16 # energy   24.02296343 # occ.  0.00000000
 
ion      s     py     pz     px    dxy    dyz    dz2    dxz  x2-y2    tot
    1  0.023  0.033  0.033  0.033  0.000  0.000  0.000  0.000  0.000  0.122
    1  0.000 -0.008  0.008  0.000  0.000  0.000 -0.000 -0.000  0.000  0.000
    1 -0.016 -0.005 -0.031 -0.023 -0.000 -0.000  0.000  0.000  0.000 -0.076
    1  0.016  0.031  0.005  0.023 -0.000  0.000 -0.000  0.000  0.000  0.076
 
band    17 # energy   26.75058133 # occ.  0.00000000
 
ion      s     py     pz     px    dxy    dyz    dz2    dxz  x2-y2    tot
    1  0.001  0.115  0.115  0.115  0.010  0.010  0.006  0.010  0.006  0.388
    1 -0.000 -0.073  0.074  0.000  0.006  0.000  0.005 -0.006 -0.005  0.001
    1  0.000 -0.088  0.007  0.081  0.001  0.007 -0.000 -0.008 -0.000  0.001
    1 -0.000 -0.008  0.087 -0.082  0.008 -0.007  0.005 -0.001 -0.005 -0.003
 
band    18 # energy   26.75058133 # occ.  0.00000000
 
ion      s     py     pz     px    dxy    dyz    dz2    dxz  x2-y2    tot
    1  0.001  0.115  0.115  0.115  0.010  0.010  0.006  0.010  0.006  0.388
    1  0.000  0.073 -0.074 -0.000 -0.006 -0.000 -0.005  0.006  0.005 -0.001
    1 -0.000  0.088 -0.007 -0.081 -0.001 -0.007  0.000  0.008  0.000 -0.001
    1  0.000  0.008 -0.087  0.082 -0.008  0.007 -0.005  0.001  0.005  0.003
 
band    19 # energy   27.55935498 # occ.  0.00000000
 
ion      s     py     pz     px    dxy    dyz    dz2    dxz  x2-y2    tot
    1  0.000  0.070  0.070  0.070  0.011  0.011  0.013  0.011  0.013  0.268
    1  0.000 -0.049  0.049  0.000  0.008  0.000  0.009 -0.008 -0.009  0.000
    1 -0.000 -0.000  0.049 -0.049  0.008 -0.008  0.009 -0.000 -0.009 -0.000
    1 -0.000 -0.049 -0.000  0.049 -0.000  0.008 -0.000 -0.008 -0.000 -0.000
 
band    20 # energy   27.55935498 # occ.  0.00000000
 
ion      s     py     pz     px    dxy    dyz    dz2    dxz  x2-y2    tot
    1  0.000  0.070  0.070  0.070  0.011  0.011  0.013  0.011  0.013  0.268
    1 -0.000  0.049 -0.049 -0.000 -0.008 -0.000 -0.009  0.008  0.009 -0.000
    1  0.000  0.000 -0.049  0.049 -0.008  0.008 -0.009  0.000  0.009  0.000
    1  0.000  0.049  0.000 -0.049  0.000 -0.008  0.000  0.008  0.000  0.000
 
band    21 # energy   30.66462397 # occ.  0.00000000
 