Au                                      
   1.00000000000000     
     0.000000    2.085644    2.085644
     2.085644    0.000000    2.085644
     2.085644    2.085644    0.000000
   Au
     1
Direct
  0.000000  0.000000  0.000000
 
   48   48   48
 0.88520279909E+02 0.87608001352E+02 0.84981592773E+02 0.80942164925E+02 0.75905667785E+02
 0.70303668813E+02 0.64495349629E+02 0.58713596827E+02 0.53057493935E+02 0.47523292233E+02
 0.42063758828E+02 0.36648007236E+02 0.31308339614E+02 0.26154581911E+02 0.21356149612E+02
 0.17097865241E+02 0.13526885719E+02 0.10711545110E+02 0.86219601361E+01 0.71426925858E+01
 0.60995996822E+01 0.53576835514E+01 0.48692030862E+01 0.45937460389E+01 0.45057126635E+01
 0.45937460389E+01 0.48692030862E+01 0.53576835514E+01 0.60995996822E+01 0.71426925858E+01
 0.86219601361E+01 0.10711545110E+02 0.13526885719E+02 0.17097865241E+02 0.21356149612E+02
 0.26154581911E+02 0.31308339614E+02 0.36648007236E+02 0.42063758828E+02 0.47523292233E+02
 0.53057493935E+02 0.58713596827E+02 0.64495349629E+02 0.70303668813E+02 0.75905667785E+02
 0.80942164925E+02 0.84981592773E+02 0.87608001352E+02 0.87608001352E+02 0.85839219437E+02
 0.82509988979E+02 0.77983051796E+02 0.72685338262E+02 0.67012912737E+02 0.61259498457E+02
 0.55586123450E+02 0.50033578349E+02 0.44571102131E+02 0.39155503548E+02 0.33787736858E+02
 0.28541785735E+02 0.23563403874E+02 0.19035904019E+02 0.15130629345E+02 0.11956950445E+02
 0.95329968180E+01 0.77816490394E+01 0.65523404951E+01 0.56748643089E+01 0.50680920034E+01
 0.46930702305E+01 0.45147493653E+01 0.45147491128E+01 0.46930680958E+01 0.50680908929E+01
 0.56748633837E+01 0.65523428488E+01 0.77816437158E+01 0.95330045979E+01 0.11956964039E+02
 0.15130627841E+02 0.19035886027E+02 0.23563384508E+02 0.28541779424E+02 0.33787719702E+02
 0.39155534213E+02 0.44571058936E+02 0.50033658178E+02 0.55586041635E+02 0.61259546634E+02
 0.67012863498E+02 0.72685249552E+02 0.77983071882E+02 0.82509995973E+02 0.85839169247E+02
 0.87608002147E+02 0.84981592773E+02 0.82509988979E+02 0.78701774534E+02 0.73939098536E+02
 0.68618452202E+02 0.63069594174E+02 0.57506605140E+02 0.52021006356E+02 0.46614028871E+02
 0.41249270112E+02 0.35911433507E+02 0.30646024360E+02 0.25572248392E+02 0.20862076297E+02
 0.16697362169E+02 0.13218079865E+02 0.10484632451E+02 0.84604812522E+01 0.70269220734E+01
 0.60108077548E+01 0.52867659334E+01 0.48104788493E+01 0.45418200270E+01 0.44559967146E+01
 0.45418185492E+01 0.48104751692E+01 0.52867648563E+01 0.60108041134E+01 0.70269296666E+01
 0.84604862080E+01 0.10484627333E+02 0.13218057490E+02 0.16697373823E+02 0.20862087757E+02
 0.25572268879E+02 0.30646032538E+02 0.35911425561E+02 0.41249292985E+02 0.46613969487E+02
 0.52021034706E+02 0.57506533902E+02 0.63069576014E+02 0.68618503726E+02 0.73939051019E+02
 0.78701715330E+02 0.82509949312E+02 0.84981502872E+02 0.85839169247E+02 0.80942164925E+02
 0.77983051796E+02 0.73939098536E+02 0.69170928222E+02 0.64012466299E+02 0.58711246208E+02
 0.53403940524E+02 0.48130579215E+02 0.42875958766E+02 0.37624245802E+02 0.32403758370E+02
 0.27310670045E+02 0.22500918134E+02 0.18156504146E+02 0.14437110930E+02 0.11436849080E+02
 0.91585050860E+01 0.75162386423E+01 0.63554944119E+01 0.55196708794E+01 0.49425346680E+01
 0.45857749894E+01 0.44161882742E+01 0.44161900935E+01 0.45857681961E+01 0.49425335501E+01
 0.55196682185E+01 0.63554928310E+01 0.75162430349E+01 0.91585150675E+01 0.11436868653E+02
 0.14437113544E+02 0.18156481282E+02 0.22500870769E+02 0.27310642484E+02 0.32403741209E+02
 0.37624244215E+02 0.42875998493E+02 0.48130574374E+02 0.53404005917E+02 0.58711178073E+02
 0.64012449902E+02 0.69170789223E+02 0.73939075058E+02 0.77983041003E+02 0.80942159537E+02
 0.82509949312E+02 0.82509995973E+02 0.75905667785E+02 0.72685338262E+02 0.68618452202E+02
 0.64012466299E+02 0.59122231263E+02 0.54114897366E+02 0.49066154171E+02 0.43989895215E+02
 0.38881682013E+02 0.33765281906E+02 0.28720621840E+02 0.23888141770E+02 0.19443189214E+02
 0.15555911208E+02 0.12344437610E+02 0.98462879114E+01 0.80072358208E+01 0.66998410524E+01
 0.57581442392E+01 0.50853887941E+01 0.46434727298E+01 0.43941589538E+01 0.43144326553E+01
 0.43941566116E+01 0.46434684043E+01 0.50853861340E+01 0.57581457598E+01 0.66998462815E+01
 0.80072280438E+01 0.98462827197E+01 0.12344433582E+02 0.15555921865E+02 0.19443214658E+02
 0.23888185975E+02 0.28720634594E+02 0.33765315039E+02 0.38881656717E+02 0.43989897544E+02
 0.49066142647E+02 0.54114849699E+02 0.59122310447E+02 0.64012456469E+02 0.68618445363E+02
 0.72685293819E+02 0.75905571611E+02 0.77983041003E+02 0.78701715330E+02 0.77983071882E+02
 0.70303668813E+02 0.67012912737E+02 0.63069594174E+02 0.58711246208E+02 0.54114897366E+02
 0.49382555687E+02 0.44556241398E+02 0.39650403179E+02 0.34693644166E+02 0.29758493016E+02
 0.24972526580E+02 0.20502404534E+02 0.16520704338E+02 0.13161635747E+02 0.10489684414E+02
 0.84805124497E+01 0.70338922975E+01 0.59926799486E+01 0.52335230693E+01 0.47111549479E+01
 0.43877732503E+01 0.42341339731E+01 0.42341241019E+01 0.43877789840E+01 0.47111441187E+01
 0.52335243017E+01 0.59926748839E+01 0.70339128098E+01 0.84805187197E+01 0.10489690597E+02
 0.13161610097E+02 0.16520700623E+02 0.20502348581E+02 0.24972516475E+02 0.29758439970E+02
 0.34693698354E+02 0.39650410467E+02 0.44556306880E+02 0.49382608155E+02 0.54114863828E+02
 0.58711168768E+02 0.63069592695E+02 0.67012822903E+02 0.70303685202E+02 0.72685293819E+02
 0.73939075058E+02 0.73939051019E+02 0.72685249552E+02 0.64495349629E+02 0.61259498457E+02
 0.57506605140E+02 0.53403940524E+02 0.49066154171E+02 0.44556241398E+02 0.39909200198E+02
 0.35164014809E+02 0.30393437887E+02 0.25715969230E+02 0.21290322715E+02 0.17285663801E+02
 0.13846063539E+02 0.11054205458E+02 0.89127636205E+01 0.73452850889E+01 0.62140832048E+01
 0.53797242447E+01 0.47849315839E+01 0.43936353558E+01 0.41732264670E+01 0.41021589784E+01
 0.41732243198E+01 0.43936325404E+01 0.47849335856E+01 0.53797238263E+01 0.62140710766E+01
 0.73452826813E+01 0.89127619491E+01 0.11054237780E+02 0.13846070222E+02 0.17285693635E+02
 0.21290320914E+02 0.25716036835E+02 0.30393405844E+02 0.35164037663E+02 0.39909167785E+02
 0.44556190897E+02 0.49066209770E+02 0.53403969596E+02 0.57506603865E+02 0.61259534300E+02
 0.64495410183E+02 0.67012822903E+02 0.68618445363E+02 0.69170789223E+02 0.68618503726E+02
 0.67012863498E+02 0.58713596827E+02 0.55586123450E+02 0.52021006356E+02 0.48130579215E+02
 0.43989895215E+02 0.39650403179E+02 0.35164014809E+02 0.30607048629E+02 0.26093938886E+02
 0.21775566676E+02 0.17815816007E+02 0.14361909172E+02 0.11508692245E+02 0.92795337384E+01
 0.76197943218E+01 0.64128373111E+01 0.55167004458E+01 0.48597799586E+01 0.44085966665E+01
 0.41286266232E+01 0.39953509053E+01 0.39953645652E+01 0.41286128889E+01 0.44086051039E+01
 0.48597663779E+01 0.55167279807E+01 0.64128295803E+01 0.76198054426E+01 0.92794981421E+01
 0.11508690127E+02 0.14361861140E+02 0.17815843401E+02 0.21775485591E+02 0.26093962575E+02
 0.30607007555E+02 0.35164033315E+02 0.39650481638E+02 0.43989829488E+02 0.48130580107E+02
 0.52021060580E+02 0.55586042508E+02 0.58713673017E+02 0.61259534300E+02 0.63069592695E+02
 0.64012456469E+02 0.64012449902E+02 0.63069576014E+02 0.61259546634E+02 0.53057493935E+02
 0.50033578349E+02 0.46614028871E+02 0.42875958766E+02 0.38881682013E+02 0.34693644166E+02
 0.30393437887E+02 0.26093938886E+02 0.21939368403E+02 0.18086859182E+02 0.14682346018E+02
 0.11826987128E+02 0.95589875385E+01 0.78422583183E+01 0.65799702104E+01 0.56370230710E+01
 0.49306264389E+01 0.44289561913E+01 0.40974792194E+01 0.39105434090E+01 0.38498340609E+01
 0.39105442971E+01 0.40974808291E+01 0.44289579163E+01 0.49306084430E+01 0.56370231444E+01
 0.65799647278E+01 0.78422932026E+01 0.95589922356E+01 0.11827047362E+02 0.14682326310E+02
 0.18086928559E+02 0.21939331858E+02 0.26093993469E+02 0.30393426234E+02 0.34693572412E+02
 0.38881769481E+02 0.42875951812E+02 0.46614047533E+02 0.50033636734E+02 0.53057512919E+02
 0.55586042508E+02 0.57506603865E+02 0.58711168768E+02 0.59122310447E+02 0.58711178073E+02
 0.57506533902E+02 0.55586041635E+02 0.47523292233E+02 0.44571102131E+02 0.41249270112E+02
 0.37624245802E+02 0.33765281906E+02 0.29758493016E+02 0.25715969230E+02 0.21775566676E+02
 0.18086859182E+02 0.14791108401E+02 0.11990913031E+02 0.97341224002E+01 0.79991399327E+01
 0.67069635519E+01 0.57338538701E+01 0.49924312842E+01 0.44508349868E+01 0.40771832941E+01
 0.38445213695E+01 0.37331300560E+01 0.37331036959E+01 0.38445453050E+01 0.40771610488E+01
 0.44508738417E+01 0.49924073862E+01 0.57338734178E+01 0.67069067557E+01 0.79991542228E+01
 0.97340461077E+01 0.11990953595E+02 0.14791009986E+02 0.18086937558E+02 0.21775499510E+02
 0.25715981393E+02 0.29758537530E+02 0.33765194519E+02 0.37624244527E+02 0.41249264615E+02
 0.44571059746E+02 0.47523306039E+02 0.50033636734E+02 0.52021060580E+02 0.53403969596E+02
 0.54114863828E+02 0.54114849699E+02 0.53404005917E+02 0.52021034706E+02 0.50033658178E+02
 0.42063758828E+02 0.39155503548E+02 0.35911433507E+02 0.32403758370E+02 0.28720621840E+02
 0.24972526580E+02 0.21290322715E+02 0.17815816007E+02 0.14682346018E+02 0.11990913031E+02
 0.97936090477E+01 0.80802942374E+01 0.67862611577E+01 0.58018735346E+01 0.50402778119E+01
 0.44711033232E+01 0.40646647922E+01 0.37951853493E+01 0.36414666490E+01 0.35918941466E+01
 0.36414703026E+01 0.37951878064E+01 0.40646471778E+01 0.44711109536E+01 0.50402705672E+01
 0.58019149150E+01 0.67862524111E+01 0.80803706285E+01 0.97935740920E+01 0.11991020003E+02
 0.14682292148E+02 0.17815848318E+02 0.21290303934E+02 0.24972453478E+02 0.28720695405E+02
 0.32403745836E+02 0.35911398345E+02 0.39155522085E+02 0.42063741162E+02 0.44571059746E+02
 0.46614047533E+02 0.48130580107E+02 0.49066209770E+02 0.49382608155E+02 0.49066142647E+02
 0.48130574374E+02 0.46613969487E+02 0.44571058936E+02 0.36648007236E+02 0.33787736858E+02
 0.30646024360E+02 0.27310670045E+02 0.23888141770E+02 0.20502404534E+02 0.17285663801E+02
 0.14361909172E+02 0.11826987128E+02 0.97341224002E+01 0.80802942374E+01 0.68134275394E+01
 0.58369052764E+01 0.50707540716E+01 0.44863737413E+01 0.40578298128E+01 0.37599984071E+01
 0.35727650527E+01 0.34824822877E+01 0.34825208977E+01 0.35727291277E+01 0.37600549745E+01
 0.40577884098E+01 0.44864111132E+01 0.50706749518E+01 0.58369356036E+01 0.68133199803E+01
 0.80803473664E+01 0.97340098106E+01 0.11827054920E+02 0.14361863954E+02 0.17285704069E+02
 0.20502490928E+02 0.23888045521E+02 0.27310637619E+02 0.30646031370E+02 0.33787688956E+02
 0.36648017298E+02 0.39155522085E+02 0.41249264615E+02 0.42875951812E+02 0.43989829488E+02
 0.44556190897E+02 0.44556306880E+02 0.43989897544E+02 0.42875998493E+02 0.41249292985E+02
 0.39155534213E+02 0.31308339614E+02 0.28541785735E+02 0.25572248392E+02 0.22500918134E+02
 0.19443189214E+02 0.16520704338E+02 0.13846063539E+02 0.11508692245E+02 0.95589875385E+01
 0.79991399327E+01 0.67862611577E+01 0.58369052764E+01 0.50810350803E+01 0.44946781580E+01
 0.40544426160E+01 0.37376930654E+01 0.35247856377E+01 0.34025397827E+01 0.33624774185E+01
 0.34025388429E+01 0.35247678785E+01 0.37377087728E+01 0.40544330272E+01 0.44947346574E+01
 0.50810218704E+01 0.58369888732E+01 0.67862261981E+01 0.79992419907E+01 0.95589454154E+01
 0.11508719710E+02 0.13846089968E+02 0.16520550254E+02 0.19443295663E+02 0.22500930860E+02
 0.25572237526E+02 0.28541804564E+02 0.31308300917E+02 0.33787688956E+02 0.35911398345E+02
 0.37624244527E+02 0.38881769481E+02 0.39650481638E+02 0.39909167785E+02 0.39650410467E+02
 0.38881656717E+02 0.37624244215E+02 0.35911425561E+02 0.33787719702E+02 0.26154581911E+02
 0.23563403874E+02 0.20862076297E+02 0.18156504146E+02 0.15555911208E+02 0.13161635747E+02
 0.11054205458E+02 0.92795337384E+01 0.78422583183E+01 0.67069635519E+01 0.58018735346E+01
 0.50707540716E+01 0.44946781580E+01 0.40535880602E+01 0.37267495887E+01 0.34965759730E+01
 0.33499126283E+01 0.32786131348E+01 0.32785761950E+01 0.33499742155E+01 0.34965240334E+01
 0.37267913766E+01 0.40535004446E+01 0.44947135664E+01 0.50706435795E+01 0.58019116657E+01
 0.67068603144E+01 0.78422829545E+01 0.92795527596E+01 0.11054138935E+02 0.13161825019E+02
 0.15555819558E+02 0.18156514643E+02 0.20862070378E+02 0.23563369687E+02 0.26154547751E+02
 0.28541804564E+02 0.30646031370E+02 0.32403745836E+02 0.33765194519E+02 0.34693572412E+02
 0.35164033315E+02 0.35164037663E+02 0.34693698354E+02 0.33765315039E+02 0.32403741209E+02
 0.30646032538E+02 0.28541779424E+02 0.21356149612E+02 0.19035904019E+02 0.16697362169E+02
 0.14437110930E+02 0.12344437610E+02 0.10489684414E+02 0.89127636205E+01 0.76197943218E+01
 0.65799702104E+01 0.57338538701E+01 0.50402778119E+01 0.44863737413E+01 0.40544426160E+01
 0.37267495887E+01 0.34871651289E+01 0.33239315995E+01 0.32287962692E+01 0.31976359598E+01
 0.32287761470E+01 0.33239447111E+01 0.34871636593E+01 0.37268071092E+01 0.40544414222E+01
 0.44864538736E+01 0.50402740652E+01 0.57339182809E+01 0.65800036041E+01 0.76197164512E+01
 0.89128927343E+01 0.10489459437E+02 0.12344588167E+02 0.14437093308E+02 0.16697351796E+02
 0.19035953521E+02 0.21356208205E+02 0.23563369687E+02 0.25572237526E+02 0.27310637619E+02
 0.28720695405E+02 0.29758537530E+02 0.30393426234E+02 0.30607007555E+02 0.30393405844E+02
 0.29758439970E+02 0.28720634594E+02 0.27310642484E+02 0.25572268879E+02 0.23563384508E+02
 0.17097865241E+02 0.15130629345E+02 0.13218079865E+02 0.11436849080E+02 0.98462879114E+01
 0.84805124497E+01 0.73452850889E+01 0.64128373111E+01 0.56370230710E+01 0.49924312842E+01
 0.44711033232E+01 0.40578298128E+01 0.37376930654E+01 0.34965759730E+01 0.33239315995E+01
 0.32123122338E+01 0.31574913877E+01 0.31574851182E+01 0.32123174126E+01 0.33239084276E+01
 0.34965469820E+01 0.37376531679E+01 0.40578017809E+01 0.44710392556E+01 0.49924468807E+01
 0.56368861757E+01 0.64130158367E+01 0.73450461825E+01 0.84808393356E+01 0.98461016681E+01
 0.11436865510E+02 0.13218138827E+02 0.15130659704E+02 0.17097764123E+02 0.19035953521E+02
 0.20862070378E+02 0.22500930860E+02 0.23888045521E+02 0.24972453478E+02 0.25715981393E+02
 0.26093993469E+02 0.26093962575E+02 0.25716036835E+02 0.24972516475E+02 0.23888185975E+02
 0.22500870769E+02 0.20862087757E+02 0.19035886027E+02 0.13526885719E+02 0.11956950445E+02
 0.10484632451E+02 0.91585050860E+01 0.80072358208E+01 0.70338922975E+01 0.62140832048E+01
 0.55167004458E+01 0.49306264389E+01 0.44508349868E+01 0.40646647922E+01 0.37599984071E+01
 0.35247856377E+01 0.33499126283E+01 0.32287962692E+01 0.31574913877E+01 0.31339342202E+01
 0.31575056564E+01 0.32288174321E+01 0.33499372430E+01 0.35248383684E+01 0.37600184102E+01
 0.40647563833E+01 0.44507970012E+01 0.49308021415E+01 0.55164932516E+01 0.62143192909E+01
 0.70336112497E+01 0.80072968305E+01 0.91586512196E+01 0.10484500686E+02 0.11956981850E+02
 0.13526948815E+02 0.15130659704E+02 0.16697351796E+02 0.18156514643E+02 0.19443295663E+02
 0.20502490928E+02 0.21290303934E+02 0.21775499510E+02 0.21939331858E+02 0.21775485591E+02
 0.21290320914E+02 0.20502348581E+02 0.19443214658E+02 0.18156481282E+02 0.16697373823E+02
 0.15130627841E+02 0.10711545110E+02 0.95329968180E+01 0.84604812522E+01 0.75162386423E+01
 0.66998410524E+01 0.59926799486E+01 0.53797242447E+01 0.48597799586E+01 0.44289561913E+01
 0.40771832941E+01 0.37951853493E+01 0.35727650527E+01 0.34025397827E+01 0.32786131348E+01
 0.31976359598E+01 0.31574851182E+01 0.31575056564E+01 0.31975554458E+01 0.32786207229E+01
 0.34024489590E+01 0.35727828886E+01 0.37950500021E+01 0.40772610563E+01 0.44287427567E+01
 0.48599852398E+01 0.53795214865E+01 0.59928528837E+01 0.66999294230E+01 0.75159454326E+01
 0.84606989598E+01 0.95329427685E+01 0.10711523823E+02 0.11956981850E+02 0.13218138827E+02
 0.14437093308E+02 0.15555819558E+02 0.16520550254E+02 0.17285704069E+02 0.17815848318E+02
 0.18086937558E+02 0.18086928559E+02 0.17815843401E+02 0.17285693635E+02 0.16520700623E+02
 0.15555921865E+02 0.14437113544E+02 0.13218057490E+02 0.11956964039E+02 0.86219601361E+01
 0.77816490394E+01 0.70269220734E+01 0.63554944119E+01 0.57581442392E+01 0.52335230693E+01
 0.47849315839E+01 0.44085966665E+01 0.40974792194E+01 0.38445213695E+01 0.36414666490E+01
 0.34824822877E+01 0.33624774185E+01 0.32785761950E+01 0.32287761470E+01 0.32123174126E+01
 0.32288174321E+01 0.32786207229E+01 0.33625344251E+01 0.34824980799E+01 0.36415695018E+01
 0.38445063842E+01 0.40976255682E+01 0.44085083767E+01 0.47849655470E+01 0.52335412479E+01
 0.57578194151E+01 0.63559183876E+01 0.70266874166E+01 0.77815900993E+01 0.86221374800E+01
 0.95329427685E+01 0.10484500686E+02 0.11436865510E+02 0.12344588167E+02 0.13161825019E+02
 0.13846089968E+02 0.14361863954E+02 0.14682292148E+02 0.14791009986E+02 0.14682326310E+02
 0.14361861140E+02 0.13846070222E+02 0.13161610097E+02 0.12344433582E+02 0.11436868653E+02
 0.10484627333E+02 0.95330045979E+01 0.71426925858E+01 0.65523404951E+01 0.60108077548E+01
 0.55196708794E+01 0.50853887941E+01 0.47111549479E+01 0.43936353558E+01 0.41286266232E+01
 0.39105434090E+01 0.37331300560E+01 0.35918941466E+01 0.34825208977E+01 0.34025388429E+01
 0.33499742155E+01 0.33239447111E+01 0.33239084276E+01 0.33499372430E+01 0.34024489590E+01
 0.34824980799E+01 0.35917970344E+01 0.37331224359E+01 0.39104187700E+01 0.41286623479E+01
 0.43936543342E+01 0.47110889961E+01 0.50856752466E+01 0.55194024918E+01 0.60106943593E+01
 0.65527150611E+01 0.71423562432E+01 0.77815900993E+01 0.84606989598E+01 0.91586512196E+01
 0.98461016681E+01 0.10489459437E+02 0.11054138935E+02 0.11508719710E+02 0.11827054920E+02
 0.11991020003E+02 0.11990953595E+02 0.11827047362E+02 0.11508690127E+02 0.11054237780E+02
 0.10489690597E+02 0.98462827197E+01 0.91585150675E+01 0.84604862080E+01 0.77816437158E+01
 0.60995996822E+01 0.56748643089E+01 0.52867659334E+01 0.49425346680E+01 0.46434727298E+01
 0.43877732503E+01 0.41732264670E+01 0.39953509053E+01 0.38498340609E+01 0.37331036959E+01
 0.36414703026E+01 0.35727291277E+01 0.35247678785E+01 0.34965240334E+01 0.34871636593E+01
 0.34965469820E+01 0.35248383684E+01 0.35727828886E+01 0.36415695018E+01 0.37331224359E+01
 0.38499646694E+01 0.39953437884E+01 0.41732027502E+01 0.43878056107E+01 0.46432605475E+01
 0.49426205930E+01 0.52870179375E+01 0.56745100984E+01 0.60996007611E+01 0.65527150611E+01
 0.70266874166E+01 0.75159454326E+01 0.80072968305E+01 0.84808393356E+01 0.89128927343E+01
 0.92795527596E+01 0.95589454154E+01 0.97340098106E+01 0.97935740920E+01 0.97340461077E+01
 0.95589922356E+01 0.92794981421E+01 0.89127619491E+01 0.84805187197E+01 0.80072280438E+01
 0.75162430349E+01 0.70269296666E+01 0.65523428488E+01 0.53576835514E+01 0.50680920034E+01
 0.48104788493E+01 0.45857749894E+01 0.43941589538E+01 0.42341339731E+01 0.41021589784E+01
 0.39953645652E+01 0.39105442971E+01 0.38445453050E+01 0.37951878064E+01 0.37600549745E+01
 0.37377087728E+01 0.37267913766E+01 0.37268071092E+01 0.37376531679E+01 0.37600184102E+01
 0.37950500021E+01 0.38445063842E+01 0.39104187700E+01 0.39953437884E+01 0.41021934829E+01
 0.42341244503E+01 0.43943469855E+01 0.45857345135E+01 0.48102432431E+01 0.50682466616E+01
 0.53578839481E+01 0.56745100984E+01 0.60106943593E+01 0.63559183876E+01 0.66999294230E+01
 0.70336112497E+01 0.73450461825E+01 0.76197164512E+01 0.78422829545E+01 0.79992419907E+01
 0.80803473664E+01 0.80803706285E+01 0.79991542228E+01 0.78422932026E+01 0.76198054426E+01
 0.73452826813E+01 0.70339128098E+01 0.66998462815E+01 0.63554928310E+01 0.60108041134E+01
 0.56748633837E+01 0.48692030862E+01 0.46930702305E+01 0.45418200270E+01 0.44161882742E+01
 0.43144326553E+01 0.42341241019E+01 0.41732243198E+01 0.41286128889E+01 0.40974808291E+01
 0.40771610488E+01 0.40646471778E+01 0.40577884098E+01 0.40544330272E+01 0.40535004446E+01
 0.40544414222E+01 0.40578017809E+01 0.40647563833E+01 0.40772610563E+01 0.40976255682E+01
 0.41286623479E+01 0.41732027502E+01 0.42341244503E+01 0.43142617725E+01 0.44162110298E+01
 0.45420464237E+01 0.46930003452E+01 0.48689899200E+01 0.50682466616E+01 0.52870179375E+01
 0.55194024918E+01 0.57578194151E+01 0.59928528837E+01 0.62143192909E+01 0.64130158367E+01
 0.65800036041E+01 0.67068603144E+01 0.67862261981E+01 0.68133199803E+01 0.67862524111E+01
 0.67069067557E+01 0.65799647278E+01 0.64128295803E+01 0.62140710766E+01 0.59926748839E+01
 0.57581457598E+01 0.55196682185E+01 0.52867648563E+01 0.50680908929E+01 0.45937460389E+01
 0.45147493653E+01 0.44559967146E+01 0.44161900935E+01 0.43941566116E+01 0.43877789840E+01
 0.43936325404E+01 0.44086051039E+01 0.44289579163E+01 0.44508738417E+01 0.44711109536E+01
 0.44864111132E+01 0.44947346574E+01 0.44947135664E+01 0.44864538736E+01 0.44710392556E+01
 0.44507970012E+01 0.44287427567E+01 0.44085083767E+01 0.43936543342E+01 0.43878056107E+01
 0.43943469855E+01 0.44162110298E+01 0.44557901754E+01 0.45147853938E+01 0.45939633321E+01
 0.46930003452E+01 0.48102432431E+01 0.49426205930E+01 0.50856752466E+01 0.52335412479E+01
 0.53795214865E+01 0.55164932516E+01 0.56368861757E+01 0.57339182809E+01 0.58019116657E+01
 0.58369888732E+01 0.58369356036E+01 0.58019149150E+01 0.57338734178E+01 0.56370231444E+01
 0.55167279807E+01 0.53797238263E+01 0.52335243017E+01 0.50853861340E+01 0.49425335501E+01
 0.48104751692E+01 0.46930680958E+01 0.45057126635E+01 0.45147491128E+01 0.45418185492E+01
 0.45857681961E+01 0.46434684043E+01 0.47111441187E+01 0.47849335856E+01 0.48597663779E+01
 0.49306084430E+01 0.49924073862E+01 0.50402705672E+01 0.50706749518E+01 0.50810218704E+01
 0.50706435795E+01 0.50402740652E+01 0.49924468807E+01 0.49308021415E+01 0.48599852398E+01
 0.47849655470E+01 0.47110889961E+01 0.46432605475E+01 0.45857345135E+01 0.45420464237E+01
 0.45147853938E+01 0.45055165875E+01 0.45147853938E+01 0.45420464237E+01 0.45857345135E+01
 0.46432605475E+01 0.47110889961E+01 0.47849655470E+01 0.48599852398E+01 0.49308021415E+01
 0.49924468807E+01 0.50402740652E+01 0.50706435795E+01 0.50810218704E+01 0.50706749518E+01
 0.50402705672E+01 0.49924073862E+01 0.49306084430E+01 0.48597663779E+01 0.47849335856E+01
 0.47111441187E+01 0.46434684043E+01 0.45857681961E+01 0.45418185492E+01 0.45147491128E+01
 0.45937460389E+01 0.46930680958E+01 0.48104751692E+01 0.49425335501E+01 0.50853861340E+01
 0.52335243017E+01 0.53797238263E+01 0.55167279807E+01 0.56370231444E+01 0.57338734178E+01
 0.58019149150E+01 0.58369356036E+01 0.58369888732E+01 0.58019116657E+01 0.57339182809E+01
 0.56368861757E+01 0.55164932516E+01 0.53795214865E+01 0.52335412479E+01 0.50856752466E+01
 0.49426205930E+01 0.48102432431E+01 0.46930003452E+01 0.45939633321E+01 0.45147853938E+01
 0.44557901754E+01 0.44162110298E+01 0.43943469855E+01 0.43878056107E+01 0.43936543342E+01
 0.44085083767E+01 0.44287427567E+01 0.44507970012E+01 0.44710392556E+01 0.44864538736E+01
 0.44947135664E+01 0.44947346574E+01 0.44864111132E+01 0.44711109536E+01 0.44508738417E+01
 0.44289579163E+01 0.44086051039E+01 0.43936325404E+01 0.43877789840E+01 0.43941566116E+01
 0.44161900935E+01 0.44559967146E+01 0.45147493653E+01 0.48692030862E+01 0.50680908929E+01
 0.52867648563E+01 0.55196682185E+01 0.57581457598E+01 0.59926748839E+01 0.62140710766E+01
 0.64128295803E+01 0.65799647278E+01 0.67069067557E+01 0.67862524111E+01 0.68133199803E+01
 0.67862261981E+01 0.67068603144E+01 0.65800036041E+01 0.64130158367E+01 0.62143192909E+01
 0.59928528837E+01 0.57578194151E+01 0.55194024918E+01 0.52870179375E+01 0.50682466616E+01
 0.48689899200E+01 0.46930003452E+01 0.45420464237E+01 0.44162110298E+01 0.43142617725E+01
 0.42341244503E+01 0.41732027502E+01 0.41286623479E+01 0.40976255682E+01 0.40772610563E+01
 0.40647563833E+01 0.40578017809E+01 0.40544414222E+01 0.40535004446E+01 0.40544330272E+01
 0.40577884098E+01 0.40646471778E+01 0.40771610488E+01 0.40974808291E+01 0.41286128889E+01
 0.41732243198E+01 0.42341241019E+01 0.43144326553E+01 0.44161882742E+01 0.45418200270E+01
 0.46930702305E+01 0.53576835514E+01 0.56748633837E+01 0.60108041134E+01 0.63554928310E+01
 0.66998462815E+01 0.70339128098E+01 0.73452826813E+01 0.76198054426E+01 0.78422932026E+01
 0.79991542228E+01 0.80803706285E+01 0.80803473664E+01 0.79992419907E+01 0.78422829545E+01
 0.76197164512E+01 0.73450461825E+01 0.70336112497E+01 0.66999294230E+01 0.63559183876E+01
 0.60106943593E+01 0.56745100984E+01 0.53578839481E+01 0.50682466616E+01 0.48102432431E+01
 0.45857345135E+01 0.43943469855E+01 0.42341244503E+01 0.41021934829E+01 0.39953437884E+01
 0.39104187700E+01 0.38445063842E+01 0.37950500021E+01 0.37600184102E+01 0.37376531679E+01
 0.37268071092E+01 0.37267913766E+01 0.37377087728E+01 0.37600549745E+01 0.37951878064E+01
 0.38445453050E+01 0.39105442971E+01 0.39953645652E+01 0.41021589784E+01 0.42341339731E+01
 0.43941589538E+01 0.45857749894E+01 0.48104788493E+01 0.50680920034E+01 0.60995996822E+01
 0.65523428488E+01 0.70269296666E+01 0.75162430349E+01 0.80072280438E+01 0.84805187197E+01
 0.89127619491E+01 0.92794981421E+01 0.95589922356E+01 0.97340461077E+01 0.97935740920E+01
 0.97340098106E+01 0.95589454154E+01 0.92795527596E+01 0.89128927343E+01 0.84808393356E+01
 0.80072968305E+01 0.75159454326E+01 0.70266874166E+01 0.65527150611E+01 0.60996007611E+01
 0.56745100984E+01 0.52870179375E+01 0.49426205930E+01 0.46432605475E+01 0.43878056107E+01
 0.41732027502E+01 0.39953437884E+01 0.38499646694E+01 0.37331224359E+01 0.36415695018E+01
 0.35727828886E+01 0.35248383684E+01 0.34965469820E+01 0.34871636593E+01 0.34965240334E+01
 0.35247678785E+01 0.35727291277E+01 0.36414703026E+01 0.37331036959E+01 0.38498340609E+01
 0.39953509053E+01 0.41732264670E+01 0.43877732503E+01 0.46434727298E+01 0.49425346680E+01
 0.52867659334E+01 0.56748643089E+01 0.71426925858E+01 0.77816437158E+01 0.84604862080E+01
 0.91585150675E+01 0.98462827197E+01 0.10489690597E+02 0.11054237780E+02 0.11508690127E+02
 0.11827047362E+02 0.11990953595E+02 0.11991020003E+02 0.11827054920E+02 0.11508719710E+02
 0.11054138935E+02 0.10489459437E+02 0.98461016681E+01 0.91586512196E+01 0.84606989598E+01
 0.77815900993E+01 0.71423562432E+01 0.65527150611E+01 0.60106943593E+01 0.55194024918E+01
 0.50856752466E+01 0.47110889961E+01 0.43936543342E+01 0.41286623479E+01 0.39104187700E+01
 0.37331224359E+01 0.35917970344E+01 0.34824980799E+01 0.34024489590E+01 0.33499372430E+01
 0.33239084276E+01 0.33239447111E+01 0.33499742155E+01 0.34025388429E+01 0.34825208977E+01
 0.35918941466E+01 0.37331300560E+01 0.39105434090E+01 0.41286266232E+01 0.43936353558E+01
 0.47111549479E+01 0.50853887941E+01 0.55196708794E+01 0.60108077548E+01 0.65523404951E+01
 0.86219601361E+01 0.95330045979E+01 0.10484627333E+02 0.11436868653E+02 0.12344433582E+02
 0.13161610097E+02 0.13846070222E+02 0.14361861140E+02 0.14682326310E+02 0.14791009986E+02
 0.14682292148E+02 0.14361863954E+02 0.13846089968E+02 0.13161825019E+02 0.12344588167E+02
 0.11436865510E+02 0.10484500686E+02 0.95329427685E+01 0.86221374800E+01 0.77815900993E+01
 0.70266874166E+01 0.63559183876E+01 0.57578194151E+01 0.52335412479E+01 0.47849655470E+01
 0.44085083767E+01 0.40976255682E+01 0.38445063842E+01 0.36415695018E+01 0.34824980799E+01
 0.33625344251E+01 0.32786207229E+01 0.32288174321E+01 0.32123174126E+01 0.32287761470E+01
 0.32785761950E+01 0.33624774185E+01 0.34824822877E+01 0.36414666490E+01 0.38445213695E+01
 0.40974792194E+01 0.44085966665E+01 0.47849315839E+01 0.52335230693E+01 0.57581442392E+01
 0.63554944119E+01 0.70269220734E+01 0.77816490394E+01 0.10711545110E+02 0.11956964039E+02
 0.13218057490E+02 0.14437113544E+02 0.15555921865E+02 0.16520700623E+02 0.17285693635E+02
 0.17815843401E+02 0.18086928559E+02 0.18086937558E+02 0.17815848318E+02 0.17285704069E+02
 0.16520550254E+02 0.15555819558E+02 0.14437093308E+02 0.13218138827E+02 0.11956981850E+02
 0.10711523823E+02 0.95329427685E+01 0.84606989598E+01 0.75159454326E+01 0.66999294230E+01
 0.59928528837E+01 0.53795214865E+01 0.48599852398E+01 0.44287427567E+01 0.40772610563E+01
 0.37950500021E+01 0.35727828886E+01 0.34024489590E+01 0.32786207229E+01 0.31975554458E+01
 0.31575056564E+01 0.31574851182E+01 0.31976359598E+01 0.32786131348E+01 0.34025397827E+01
 0.35727650527E+01 0.37951853493E+01 0.40771832941E+01 0.44289561913E+01 0.48597799586E+01
 0.53797242447E+01 0.59926799486E+01 0.66998410524E+01 0.75162386423E+01 0.84604812522E+01
 0.95329968180E+01 0.13526885719E+02 0.15130627841E+02 0.16697373823E+02 0.18156481282E+02
 0.19443214658E+02 0.20502348581E+02 0.21290320914E+02 0.21775485591E+02 0.21939331858E+02
 0.21775499510E+02 0.21290303934E+02 0.20502490928E+02 0.19443295663E+02 0.18156514643E+02
 0.16697351796E+02 0.15130659704E+02 0.13526948815E+02 0.11956981850E+02 0.10484500686E+02
 0.91586512196E+01 0.80072968305E+01 0.70336112497E+01 0.62143192909E+01 0.55164932516E+01
 0.49308021415E+01 0.44507970012E+01 0.40647563833E+01 0.37600184102E+01 0.35248383684E+01
 0.33499372430E+01 0.32288174321E+01 0.31575056564E+01 0.31339342202E+01 0.31574913877E+01
 0.32287962692E+01 0.33499126283E+01 0.35247856377E+01 0.37599984071E+01 0.40646647922E+01
 0.44508349868E+01 0.49306264389E+01 0.55167004458E+01 0.62140832048E+01 0.70338922975E+01
 0.80072358208E+01 0.91585050860E+01 0.10484632451E+02 0.11956950445E+02 0.17097865241E+02
 0.19035886027E+02 0.20862087757E+02 0.22500870769E+02 0.23888185975E+02 0.24972516475E+02
 0.25716036835E+02 0.26093962575E+02 0.26093993469E+02 0.25715981393E+02 0.24972453478E+02
 0.23888045521E+02 0.22500930860E+02 0.20862070378E+02 0.19035953521E+02 0.17097764123E+02
 0.15130659704E+02 0.13218138827E+02 0.11436865510E+02 0.98461016681E+01 0.84808393356E+01
 0.73450461825E+01 0.64130158367E+01 0.56368861757E+01 0.49924468807E+01 0.44710392556E+01
 0.40578017809E+01 0.37376531679E+01 0.34965469820E+01 0.33239084276E+01 0.32123174126E+01
 0.31574851182E+01 0.31574913877E+01 0.32123122338E+01 0.33239315995E+01 0.34965759730E+01
 0.37376930654E+01 0.40578298128E+01 0.44711033232E+01 0.49924312842E+01 0.56370230710E+01
 0.64128373111E+01 0.73452850889E+01 0.84805124497E+01 0.98462879114E+01 0.11436849080E+02