    1    1    1    1
  0.1814474E+02  0.2949546E-09  0.2949546E-09  0.2949546E-09  0.5000000E-15
  1.000000000000000E-004
  CAR 
 Au                                      
     11    120     16
 
  0.0000000E+00  0.0000000E+00  0.0000000E+00  0.2962963E-03
    1       -0.747350   1.000000
    2        4.093247   1.000000
    3        4.093247   1.000000
    4        4.093247   1.000000
    5        5.448234   1.000000
    6        5.448234   1.000000
    7       23.051906   0.000000
    8       26.690196   0.000000
    9       26.690196   0.000000
   10       26.690196   0.000000
   11       31.400750   0.000000
   12       35.386105   0.000000
   13       35.386105   0.000000
   14       35.386105   0.000000
   15       36.727695   0.000000
   16       36.727695   0.000000
 
  0.6666667E-01  0.0000000E+00  0.0000000E+00  0.2370370E-02
    1       -0.600874   1.000000
    2        4.049178   1.000000
    3        4.141430   1.000000
    4        4.141430   1.000000
    5        5.427623   1.000000
    6        5.427623   1.000000
    7       23.204313   0.000000
    8       25.706819   0.000000
    9       26.845221   0.000000
   10       26.845221   0.000000
   11       32.059853   0.000000
   12       33.966694   0.000000
   13       34.553978   0.000000
   14       34.553978   0.000000
   15       37.120149   0.000000
   16       37.120149   0.000000
 
  0.1333333E+00  0.0000000E+00  0.0000000E+00  0.2370370E-02
    1       -0.178271   1.000000
    2        3.947797   1.000000
    3        4.257664   1.000000
    4        4.257664   1.000000
    5        5.396778   1.000000
    6        5.396778   1.000000
    7       23.202566   0.000000
    8       24.104036   0.000000
    9       27.256857   0.000000
   10       27.256857   0.000000
   11       30.933617   0.000000
   12       33.032653   0.000000
   13       33.032653   0.000000
   14       35.107347   0.000000
   15       37.581593   0.000000
   16       37.581593   0.000000
 
  0.2000000E+00  0.0000000E+00  0.0000000E+00  0.2370370E-02
    1        0.453622   1.000000
    2        3.889641   1.000000
    3        4.350570   1.000000
    4        4.350570   1.000000
    5        5.450640   1.000000
    6        5.450640   1.000000
    7       21.122554   0.000000
    8       24.115903   0.000000
    9       27.696140   0.000000
   10       27.696140   0.000000
   11       29.753631   0.000000
   12       31.567051   0.000000
   13       31.567051   0.000000
   14       37.321738   0.000000
   15       37.957408   0.000000
   16       37.957408   0.000000
 
  0.2666667E+00  0.0000000E+00  0.0000000E+00  0.2370370E-02
    1        1.119980   1.000000
    2        4.084380   1.000000
    3        4.330915   1.000000
    4        4.330915   1.000000
    5        5.672193   1.000000
    6        5.672193   1.000000
    7       18.572079   0.000000
    8       23.878267   0.000000
    9       27.548646   0.000000
   10       27.548646   0.000000
   11       29.879811   0.000000
   12       30.931559   0.000000
   13       30.931559   0.000000
   14       38.320857   0.000000
   15       38.320857   0.000000
   16       39.015936   0.000000
 
  0.3333333E+00  0.0000000E+00  0.0000000E+00  0.2370370E-02
    1        1.545609   1.000000
    2        4.232705   1.000000
    3        4.232705   1.000000
    4        4.822486   1.000000
    5        6.000837   1.000000
    6        6.000837   1.000000
    7       15.970870   0.000000
    8       23.309572   0.000000
    9       26.638948   0.000000
   10       26.638948   0.000000
   11       31.017484   0.000000
   12       31.335509   0.000000
   13       31.335509   0.000000
   14       38.709555   0.000000
   15       38.709555   0.000000
   16       39.894581   0.000000
 
  0.4000000E+00  0.0000000E+00  0.0000000E+00  0.2370370E-02
    1        1.682982   1.000000
    2        4.131230   1.000000
    3        4.131230   1.000000
    4        6.111871   1.000000
    5        6.311402   1.000000
    6        6.311402   1.000000
    7       13.512682   0.000000
    8       22.802406   0.000000
    9       25.716857   0.000000
   10       25.716858   0.000000
   11       31.984801   0.000000
   12       31.984801   0.000000
   13       32.442445   0.000000
   14       39.101324   0.000000
   15       39.101324   0.000000
   16       40.391193   0.000000
 
  0.4666667E+00  0.0000000E+00  0.0000000E+00  0.2370370E-02
    1        1.702199   1.000000
    2        4.071165   1.000000
    3        4.071165   1.000000
    4        6.498137   1.000000
    5        6.498137   1.000000
    6        7.499085   1.000000
    7       11.570493   0.000000
    8       22.525580   0.000000
    9       25.186996   0.000000
   10       25.186996   0.000000
   11       32.402272   0.000000
   12       32.402272   0.000000
   13       33.462877   0.000000
   14       39.377740   0.000000
   15       39.377740   0.000000
   16       40.691593   0.000000
 
  0.6666667E-01  0.6666667E-01  0.0000000E+00  0.1777778E-02
    1       -0.551754   1.000000
    2        3.998353   1.000000
    3        4.177578   1.000000
    4        4.177578   1.000000
    5        5.347895   1.000000
    6        5.489485   1.000000
    7       23.268944   0.000000
    8       26.039591   0.000000
    9       26.503335   0.000000
   10       26.503335   0.000000
   11       32.601605   0.000000
   12       33.821504   0.000000
   13       33.821504   0.000000
   14       34.901428   0.000000
   15       35.548276   0.000000
   16       38.658634   0.000000
 
  0.1333333E+00  0.6666667E-01  0.0000000E+00  0.7111111E-02
    1       -0.219519   1.000000
    2        3.888693   1.000000
    3        4.287709   1.000000
    4        4.292882   1.000000
    5        5.248372   1.000000
    6        5.522493   1.000000
    7       23.513470   0.000000
    8       24.540958   0.000000
    9       26.384356   0.000000
   10       27.035841   0.000000
   11       31.484886   0.000000
   12       32.913091   0.000000
   13       33.895910   0.000000
   14       34.797088   0.000000
   15       35.546356   0.000000
   16       39.524366   0.000000
 
  0.2000000E+00  0.6666667E-01  0.0000000E+00  0.7111111E-02
    1        0.351158   1.000000
    2        3.784230   1.000000
    3        4.394412   1.000000
    4        4.409940   1.000000
    5        5.230480   1.000000
    6        5.595182   1.000000
    7       22.019940   0.000000
    8       24.147598   0.000000
    9       26.315625   0.000000
   10       27.897089   0.000000
   11       29.667688   0.000000
   12       32.034102   0.000000
   13       32.693266   0.000000
   14       35.624975   0.000000
   15       37.234333   0.000000
   16       39.866304   0.000000
 
  0.2666667E+00  0.6666667E-01  0.0000000E+00  0.7111111E-02
    1        1.032979   1.000000
    2        3.823377   1.000000
    3        4.366555   1.000000
    4        4.434136   1.000000
    5        5.456795   1.000000
    6        5.789464   1.000000
    7       19.517959   0.000000
    8       24.079093   0.000000
    9       26.049548   0.000000
   10       28.201750   0.000000
   11       29.199622   0.000000
   12       31.539359   0.000000
   13       31.900653   0.000000
   14       35.872550   0.000000
   15       39.478178   0.000000
   16       40.088516   0.000000
 
  0.3333333E+00  0.6666667E-01  0.0000000E+00  0.7111111E-02
    1        1.560894   1.000000
    2        4.182200   1.000000
    3        4.310558   1.000000
    4        4.360906   1.000000
    5        5.921685   1.000000
    6        6.082440   1.000000
    7       16.900517   0.000000
    8       23.582670   0.000000
    9       25.518222   0.000000
   10       27.075694   0.000000
   11       30.500226   0.000000
   12       31.590227   0.000000
   13       32.073518   0.000000
   14       36.231055   0.000000
   15       40.337728   0.000000
   16       40.659412   0.000000
 
  0.4000000E+00  0.6666667E-01  0.0000000E+00  0.7111111E-02
    1        1.769961   1.000000
    2        4.094284   1.000000
    3        4.255754   1.000000
    4        5.105623   1.000000
    5        6.362079   1.000000
    6        6.627816   1.000000
    7       14.363092   0.000000
    8       23.039676   0.000000
    9       24.975790   0.000000
   10       25.857569   0.000000
   11       31.954386   0.000000
   12       31.972691   0.000000
   13       32.769306   0.000000
   14       36.809973   0.000000
   15       40.484053   0.000000
   16       41.150101   0.000000
 
  0.4666667E+00  0.6666667E-01  0.0000000E+00  0.7111111E-02
    1        1.807057   1.000000
    2        4.014718   1.000000
    3        4.172609   1.000000
    4        5.794964   1.000000
    5        6.519422   1.000000
    6        7.736769   1.045355
    7       12.143363   0.000000
    8       22.678899   0.000000
    9       24.726366   0.000000
   10       24.905161   0.000000
   11       32.376639   0.000000
   12       32.644569   0.000000
   13       33.735561   0.000000
   14       37.800906   0.000000
   15       40.230979   0.000000
   16       41.113189   0.000000
 
 -0.4666667E+00  0.6666667E-01  0.0000000E+00  0.7111111E-02
    1        1.809171   1.000000
    2        4.001399   1.000000
    3        4.141084   1.000000
    4        6.024464   1.000000
    5        6.489260   1.000000
    6        8.384753   0.714906
    7       11.248373   0.000000
    8       22.569141   0.000000
    9       24.399171   0.000000
   10       24.953520   0.000000
   11       32.556758   0.000000
   12       32.571698   0.000000
   13       34.148717   0.000000
   14       39.072984   0.000000
   15       39.435761   0.000000
   16       40.692535   0.000000
 
 -0.4000000E+00  0.6666667E-01  0.0000000E+00  0.7111111E-02
    1        1.806218   1.000000
    2        4.054682   1.000000
    3        4.172018   1.000000
    4        5.740448   1.000000
    5        6.270651   1.000000
    6        7.407121   1.075306
    7       12.835457   0.000000
    8       22.717207   0.000000
    9       24.398709   0.000000
   10       25.713740   0.000000
   11       31.873297   0.000000
   12       32.405302   0.000000
   13       33.746902   0.000000
   14       38.347924   0.000000
   15       39.201205   0.000000
   16       41.332497   0.000000
 
 -0.3333333E+00  0.6666667E-01  0.0000000E+00  0.7111111E-02
    1        1.734503   1.000000
    2        4.153005   1.000000
    3        4.258992   1.000000
    4        4.899883   1.000000
    5        5.923475   1.000000
    6        6.618166   1.000000
    7       15.199772   0.000000
    8       23.086363   0.000000
    9       24.855337   0.000000
   10       26.963574   0.000000
   11       30.649998   0.000000
   12       31.806303   0.000000
   13       33.104758   0.000000
   14       37.333825   0.000000
   15       38.812525   0.000000
   16       41.845476   0.000000
 
 -0.2666667E+00  0.6666667E-01  0.0000000E+00  0.7111111E-02
    1        1.423817   1.000000
    2        4.061387   1.000000
    3        4.335128   1.000000
    4        4.371508   1.000000
    5        5.546846   1.000000
    6        6.132706   1.000000
    7       17.775296   0.000000
    8       23.561306   0.000000
    9       25.627918   0.000000
   10       28.559368   0.000000
   11       29.286212   0.000000
   12       30.897635   0.000000
   13       32.668623   0.000000
   14       36.572028   0.000000
   15       38.410226   0.000000
   16       41.566613   0.000000
 
 -0.2000000E+00  0.6666667E-01  0.0000000E+00  0.7111111E-02
    1        0.807686   1.000000
    2        3.806973   1.000000
    3        4.386555   1.000000
    4        4.430767   1.000000
    5        5.275323   1.000000
    6        5.771253   1.000000
    7       20.362414   0.000000
    8       23.897663   0.000000
    9       26.334032   0.000000
   10       28.579594   0.000000
   11       29.299364   0.000000
   12       30.982239   0.000000
   13       32.626043   0.000000
   14       36.019628   0.000000
   15       37.734886   0.000000
   16       40.046641   0.000000
 
 -0.1333333E+00  0.6666667E-01  0.0000000E+00  0.7111111E-02
    1        0.138474   1.000000
    2        3.843158   1.000000
    3        4.345672   1.000000
    4        4.357266   1.000000
    5        5.230184   1.000000
    6        5.559849   1.000000
    7       22.730114   0.000000
    8       23.877525   0.000000
    9       26.309491   0.000000
   10       28.358563   0.000000
   11       29.580424   0.000000
   12       32.975782   0.000000
   13       32.991955   0.000000
   14       35.564763   0.000000
   15       36.117207   0.000000
   16       38.749470   0.000000
 
 -0.6666667E-01  0.6666667E-01  0.0000000E+00  0.3555556E-02
    1       -0.361339   1.000000
    2        3.963541   1.000000
    3        4.208487   1.000000
    4        4.242159   1.000000
    5        5.325096   1.000000
    6        5.477874   1.000000
    7       23.413967   0.000000
    8       24.786964   0.000000
    9       26.347560   0.000000
   10       27.472708   0.000000
   11       31.463379   0.000000
   12       33.558789   0.000000
   13       34.223968   0.000000
   14       35.088699   0.000000
   15       35.151612   0.000000
   16       38.157481   0.000000
 
  0.1333333E+00  0.1333333E+00  0.0000000E+00  0.1777778E-02
    1        0.016302   1.000000
    2        3.739250   1.000000
    3        4.426310   1.000000
    4        4.426310   1.000000
    5        5.083647   1.000000
    6        5.607602   1.000000
    7       23.870572   0.000000
    8       25.069237   0.000000
    9       25.707761   0.000000
   10       25.707761   0.000000
   11       31.133807   0.000000
   12       32.718997   0.000000
   13       32.718997   0.000000
   14       35.549407   0.000000
   15       36.049774   0.000000
   16       41.049335   0.000000
 
  0.2000000E+00  0.1333333E+00  0.0000000E+00  0.7111111E-02
    1        0.500391   1.000000
    2        3.583386   1.000000
    3        4.543397   1.000000
    4        4.587610   1.000000
    5        5.024045   1.000000
    6        5.699103   1.000000
    7       23.103728   0.000000
    8       24.353541   0.000000
    9       25.144892   0.000000
   10       26.328226   0.000000
   11       29.222939   0.000000
   12       32.491455   0.000000
   13       32.667853   0.000000
   14       36.032397   0.000000
   15       37.598392   0.000000
   16       41.017598   0.000000
 
  0.2666667E+00  0.1333333E+00  0.0000000E+00  0.7111111E-02
    1        1.147474   1.000000
    2        3.496529   1.000000
    3        4.411545   1.000000
    4        4.671003   1.000000
    5        5.357687   1.000000
    6        5.877674   1.000000
    7       20.618133   0.000000
    8       24.400503   0.000000
    9       24.614240   0.000000
   10       26.623936   0.000000
   11       28.720196   0.000000
   12       32.324923   0.000000
   13       32.701276   0.000000
   14       35.653488   0.000000
   15       40.205833   0.000000
   16       40.826310   0.000000
 
  0.3333333E+00  0.1333333E+00  0.0000000E+00  0.7111111E-02
    1        1.743044   1.000000
    2        3.651721   1.000000
    3        4.194478   1.000000
    4        4.635990   1.000000
    5        5.991905   1.000000
    6        6.149533   1.000000
    7       17.965077   0.000000
    8       23.933414   0.000000
    9       24.113814   0.000000
   10       25.865587   0.000000
   11       30.148883   0.000000
   12       32.311786   0.000000
   13       32.942004   0.000000
   14       35.339447   0.000000
   15       41.169165   0.000000
   16       41.989136   0.000000
 
  0.4000000E+00  0.1333333E+00  0.0000000E+00  0.7111111E-02
    1        2.027558   1.000000
    2        3.988968   1.000000
    3        4.213566   1.000000
    4        4.537782   1.000000
    5        6.411157   1.000000
    6        6.907937   1.000000
    7       15.359205   0.000000
    8       23.249346   0.000000
    9       23.755709   0.000000
   10       24.972218   0.000000
   11       32.187875   0.000000
   12       32.449487   0.000000
   13       33.309149   0.000000
   14       35.257083   0.000000
   15       41.802246   0.000000
   16       42.369211   0.000000
 
  0.4666667E+00  0.1333333E+00  0.0000000E+00  0.7111111E-02
    1        2.087863   1.000000
    2        3.871197   1.000000
    3        4.438059   1.000000
    4        4.862163   1.000000
    5        6.548917   1.000000
    6        8.165509   0.755410
    7       12.964807   0.000000
    8       22.602254   0.000000
    9       23.707931   0.000000
   10       24.189715   0.000000
   11       32.651920   0.000000
   12       33.237960   0.000000
   13       34.673338   0.000000
   14       35.465130   0.000000
   15       41.661801   0.000000
   16       42.066357   0.000000
 
 -0.4666667E+00  0.1333333E+00  0.0000000E+00  0.7111111E-02
    1        2.099440   1.000000
    2        3.829773   1.000000
    3        4.375684   1.000000
    4        5.260655   1.000000
    5        6.495567   1.000000
    6        9.464302  -0.058650
    7       11.234704   0.000000
    8       22.074215   0.000000
    9       23.741868   0.000000
   10       24.105853   0.000000
   11       32.816999   0.000000
   12       32.882311   0.000000
   13       35.389123   0.000000
   14       37.445188   0.000000
   15       40.364921   0.000000
   16       40.954381   0.000000
 
 -0.4000000E+00  0.1333333E+00  0.0000000E+00  0.7111111E-02
    1        2.117372   1.000000
    2        3.871229   1.000000
    3        4.371154   1.000000
    4        5.207552   1.000000
    5        6.250418   1.000000
    6        8.684778   0.272537
    7       12.366475   0.000000
    8       21.764380   0.000000
    9       23.708225   0.000000
   10       25.000702   0.000000
   11       31.943879   0.000000
   12       32.860101   0.000000
   13       35.391187   0.000000
   14       38.605483   0.000000
   15       39.104060   0.000000
   16       40.857756   0.000000
 
 -0.3333333E+00  0.1333333E+00  0.0000000E+00  0.7111111E-02
    1        2.109027   1.000000
    2        3.970066   1.000000
    3        4.430254   1.000000
    4        4.676071   1.000000
    5        5.870978   1.000000
    6        7.582203   1.071025
    7       14.631039   0.000000
    8       21.742939   0.000000
    9       24.073844   0.000000
   10       26.360086   0.000000
   11       30.532823   0.000000
   12       32.691554   0.000000
   13       35.248646   0.000000
   14       36.794405   0.000000
   15       38.619370   0.000000
   16       42.746053   0.000000
 
 -0.2666667E+00  0.1333333E+00  0.0000000E+00  0.7111111E-02
    1        1.921593   1.000000
    2        3.883994   1.000000
    3        4.245855   1.000000
    4        4.542122   1.000000
    5        5.445016   1.000000
    6        6.830609   1.000000
    7       17.124932   0.000000
    8       21.971803   0.000000
    9       24.827256   0.000000
   10       28.094407   0.000000
   11       28.946454   0.000000
   12       32.144201   0.000000
   13       34.983356   0.000000
   14       35.317760   0.000000
   15       38.173024   0.000000
   16       41.519512   0.000000
 
 -0.2000000E+00  0.1333333E+00  0.0000000E+00  0.7111111E-02
    1        1.380277   1.000000
    2        3.644909   1.000000
    3        4.342834   1.000000
    4        4.647802   1.000000
    5        5.094059   1.000000
    6        6.261753   1.000000
    7       19.639841   0.000000
    8       22.371979   0.000000
    9       25.937464   0.000000
   10       27.528391   0.000000
   11       30.024255   0.000000
   12       31.117553   0.000000
   13       34.504971   0.000000
   14       34.516507   0.000000
   15       37.882474   0.000000
   16       40.295900   0.000000
 
 -0.1333333E+00  0.1333333E+00  0.0000000E+00  0.3555556E-02
    1        0.694953   1.000000
    2        3.696326   1.000000
    3        4.408834   1.000000
    4        4.536367   1.000000
    5        5.065157   1.000000
    6        5.831244   1.000000
    7       21.748034   0.000000
    8       23.018815   0.000000
    9       26.260506   0.000000
   10       27.730022   0.000000
   11       29.645215   0.000000
   12       32.068293   0.000000
   13       33.810649   0.000000
   14       34.400382   0.000000
   15       37.330969   0.000000
   16       39.201409   0.000000
 
  0.2000000E+00  0.2000000E+00  0.0000000E+00  0.1777778E-02
    1        0.875589   1.000000
    2        3.379554   1.000000
    3        4.787454   1.000000
    4        4.824683   1.000000
    5        4.824683   1.000000
    6        5.785811   1.000000
    7       24.160128   0.000000
    8       24.160128   0.000000
    9       24.450637   0.000000
   10       24.723729   0.000000
   11       27.335105   0.000000
   12       32.925523   0.000000
   13       32.925523   0.000000
   14       36.932230   0.000000
   15       38.878687   0.000000
   16       40.198021   0.000000
 
  0.2666667E+00  0.2000000E+00  0.0000000E+00  0.7111111E-02
    1        1.413878   1.000000
    2        3.214887   1.000000
    3        4.547800   1.000000
    4        5.004281   1.000000
    5        5.287163   1.000000
    6        5.932784   1.000000
    7       21.809485   0.000000
    8       23.346596   0.000000
    9       24.561122   0.000000
   10       25.369051   0.000000
   11       26.444994   0.000000
   12       33.237676   0.000000
   13       33.338264   0.000000
   14       37.152906   0.000000
   15       39.628851   0.000000
   16       40.843632   0.000000
 
  0.3333333E+00  0.2000000E+00  0.0000000E+00  0.7111111E-02
    1        1.972852   1.000000
    2        3.176594   1.000000
    3        4.309831   1.000000
    4        5.031825   1.000000
    5        6.021859   1.000000
    6        6.187485   1.000000
    7       19.112299   0.000000
    8       22.726625   0.000000
    9       23.561841   0.000000
   10       25.099280   0.000000
   11       28.136926   0.000000
   12       33.347169   0.000000
   13       33.752249   0.000000
   14       36.938017   0.000000
   15       39.857571   0.000000
   16       42.408081   0.000000
 
  0.4000000E+00  0.2000000E+00  0.0000000E+00  0.7111111E-02
    1        2.299191   1.000000
    2        3.406069   1.000000
    3        4.149509   1.000000
    4        4.953132   1.000000
    5        6.447342   1.000000
    6        7.069669   1.005815
    7       16.451093   0.000000
    8       22.374007   0.000000
    9       22.378773   0.000000
   10       24.833844   0.000000
   11       30.257401   0.000000
   12       33.315049   0.000000
   13       34.052993   0.000000
   14       36.694161   0.000000
   15       40.808729   0.000000
   16       42.969414   0.000000
 
  0.4666667E+00  0.2000000E+00  0.0000000E+00  0.7111111E-02
    1        2.390661   1.000000
    2        3.628130   1.000000
    3        4.275347   1.000000
    4        4.844422   1.000000
    5        6.581412   1.000000
    6        8.449519   0.531886
    7       13.980528   0.000000
    8       21.303178   0.000000
    9       22.393097   0.000000
   10       24.496004   0.000000
   11       32.507002   0.000000
   12       33.253919   0.000000
   13       34.074924   0.000000
   14       36.752618   0.000000
   15       42.216902   0.000000
   16       42.675734   0.000000
 
 -0.4666667E+00  0.2000000E+00  0.0000000E+00  0.7111111E-02
    1        2.441574   1.000000
    2        3.634231   1.000000
    3        4.599352   1.000000
    4        4.752873   1.000000
    5        6.518144   1.000000
    6       10.126983  -0.024110
    7       11.821842   0.000000
    8       20.393130   0.000000
    9       22.867063   0.000000
   10       24.228678   0.000000
   11       33.212744   0.000000
   12       33.435376   0.000000
   13       34.672565   0.000000
   14       37.494606   0.000000
   15       41.401836   0.000000
   16       41.685440   0.000000
 
 -0.4000000E+00  0.2000000E+00  0.0000000E+00  0.7111111E-02
    1        2.512188   1.000000
    2        3.659802   1.000000
    3        4.682272   1.000000
    4        4.705662   1.000000
    5        6.259723   1.000000
    6        9.956279   0.000000
    7       12.176476   0.000000
    8       19.745344   0.000000
    9       23.811972   0.000000
   10       24.146860   0.000000
   11       32.407388   0.000000
   12       33.195877   0.000000
   13       35.741390   0.000000
   14       39.403564   0.000000
   15       39.742862   0.000000
   16       40.253948   0.000000
 
 -0.3333333E+00  0.2000000E+00  0.0000000E+00  0.7111111E-02
    1        2.583029   1.000000
    2        3.748451   1.000000
    3        4.376110   1.000000
    4        4.716456   1.000000
    5        5.866502   1.000000
    6        8.630085   0.293250
    7       14.354346   0.000000
    8       19.462127   0.000000
    9       24.310073   0.000000
   10       25.168446   0.000000
   11       30.917627   0.000000
   12       33.212849   0.000000
   13       36.379649   0.000000
   14       37.555738   0.000000
   15       39.339468   0.000000
   16       41.439092   0.000000
 
 -0.2666667E+00  0.2000000E+00  0.0000000E+00  0.7111111E-02
    1        2.525280   1.000000
    2        3.699914   1.000000
    3        4.064181   1.000000
    4        4.787216   1.000000
    5        5.422288   1.000000
    6        7.665274   1.073993
    7       16.640875   0.000000
    8       19.620285   0.000000
    9       24.741110   0.000000
   10       26.813597   0.000000
   11       29.330683   0.000000
   12       33.311113   0.000000
   13       35.328354   0.000000
   14       36.960449   0.000000
   15       38.414446   0.000000
   16       40.463111   0.000000
 
 -0.2000000E+00  0.2000000E+00  0.0000000E+00  0.3555556E-02
    1        2.060427   1.000000
    2        3.540807   1.000000
    3        4.199262   1.000000
    4        4.890604   1.000000
    5        5.024327   1.000000
    6        6.901335   1.000000
    7       18.601076   0.000000
    8       20.488117   0.000000
    9       25.406061   0.000000
   10       27.986340   0.000000
   11       28.543563   0.000000
   12       33.082678   0.000000
   13       33.726542   0.000000
   14       36.487532   0.000000
   15       37.708144   0.000000
   16       39.953730   0.000000
 
  0.2666667E+00  0.2666667E+00  0.0000000E+00  0.1777778E-02
    1        1.756830   1.000000
    2        2.994216   1.000000
    3        4.797526   1.000000
    4        5.340856   1.000000
    5        5.340856   1.000000
    6        5.996960   1.000000
    7       22.290430   0.000000
    8       22.290430   0.000000
    9       23.490124   0.000000
   10       24.363620   0.000000
   11       25.650665   0.000000
   12       34.150056   0.000000
   13       34.150056   0.000000
   14       38.247361   0.000000
   15       38.489647   0.000000
   16       41.748774   0.000000
 
  0.3333333E+00  0.2666667E+00  0.0000000E+00  0.7111111E-02
    1        2.098948   1.000000
    2        2.854111   1.000000
    3        4.808081   1.000000
    4        5.497207   1.000000
    5        5.975439   1.000000
    6        6.191528   1.000000
    7       20.131996   0.000000
    8       21.498056   0.000000
    9       22.063798   0.000000
   10       24.932446   0.000000
   11       26.464972   0.000000
   12       34.645728   0.000000
   13       34.871273   0.000000
   14       38.275715   0.000000
   15       38.757116   0.000000
   16       42.184092   0.000000
 
  0.4000000E+00  0.2666667E+00  0.0000000E+00  0.7111111E-02
    1        2.346453   1.000000
    2        2.875400   1.000000
    3        4.685316   1.000000
    4        5.456898   1.000000
    5        6.461094   1.000000
    6        7.116035   1.025929
    7       17.495625   0.000000
    8       20.829973   0.000000
    9       21.046645   0.000000
   10       25.202440   0.000000
   11       28.105709   0.000000
   12       34.472636   0.000000
   13       35.298065   0.000000
   14       38.812303   0.000000
   15       39.249758   0.000000
   16       42.541507   0.000000
 
  0.4666667E+00  0.2666667E+00  0.0000000E+00  0.7111111E-02
    1        2.452746   1.000000
    2        3.092869   1.000000
    3        4.576266   1.000000
    4        5.348007   1.000000
    5        6.611804   1.000000
    6        8.600099   0.401145
    7       15.046285   0.000000
    8       19.656157   0.000000
    9       21.023683   0.000000
   10       25.127761   0.000000
   11       30.122363   0.000000
   12       34.092738   0.000000
   13       35.271891   0.000000
   14       38.818756   0.000000
   15       40.813980   0.000000
   16       42.518164   0.000000
 
 -0.4666667E+00  0.2666667E+00  0.0000000E+00  0.7111111E-02
    1        2.550581   1.000000
    2        3.335883   1.000000
    3        4.503685   1.000000
    4        5.230784   1.000000
    5        6.556897   1.000000
    6       10.346148  -0.001416
    7       12.905897   0.000000
    8       18.574364   0.000000
    9       21.484358   0.000000
   10       24.938808   0.000000
   11       32.180547   0.000000
   12       33.769444   0.000000
   13       34.676847   0.000000
   14       39.207512   0.000000
   15       41.535139   0.000000
   16       42.113160   0.000000
 
 -0.4000000E+00  0.2666667E+00  0.0000000E+00  0.7111111E-02
    1        2.701573   1.000000
    2        3.519338   1.000000
    3        4.392474   1.000000
    4        5.131889   1.000000
    5        6.306804   1.000000
    6       11.037577   0.000000
    7       12.404166   0.000000
    8       17.673967   0.000000
    9       22.412617   0.000000
   10       24.764577   0.000000
   11       33.284037   0.000000
   12       33.544746   0.000000
   13       34.256358   0.000000
   14       39.884711   0.000000
   15       40.959421   0.000000
   16       41.179758   0.000000
 
 -0.3333333E+00  0.2666667E+00  0.0000000E+00  0.7111111E-02
    1        2.882715   1.000000
    2        3.670279   1.000000
    3        4.115685   1.000000
    4        5.057389   1.000000
    5        5.941230   1.000000