       N       E                     dE             d eps       ncg     rms          rms(c)
DAV:   1     0.595338858967E+02    0.59534E+02   -0.57649E+03  3848   0.689E+02
DAV:   2    -0.238480149804E+01   -0.61919E+02   -0.57976E+02  5176   0.175E+02
DAV:   3    -0.347748264593E+01   -0.10927E+01   -0.10919E+01  4816   0.215E+01
DAV:   4    -0.348148925852E+01   -0.40066E-02   -0.40070E-02  4928   0.146E+00
DAV:   5    -0.348151886733E+01   -0.29609E-04   -0.29612E-04  4928   0.114E-01    0.772E+00
DAV:   6    -0.329896083656E+01    0.18256E+00   -0.20199E-01  4992   0.288E+00    0.620E+00
DAV:   7    -0.322256778505E+01    0.76393E-01   -0.34512E-01  5096   0.379E+00    0.397E+00
DAV:   8    -0.322082656577E+01    0.17412E-02   -0.66628E-03  4336   0.541E-01    0.256E+00
DAV:   9    -0.321967740703E+01    0.11492E-02   -0.25463E-04  4752   0.116E-01    0.467E-02
DAV:  10    -0.321967785765E+01   -0.45063E-06   -0.21956E-06  5072   0.929E-03    0.427E-02
DAV:  11    -0.321967784892E+01    0.87340E-08   -0.38063E-07  5024   0.508E-03
   1 F= -.32196778E+01 E0= -.32196778E+01  d E =0.000000E+00
