 vasp.5.4.4.18Apr17-6-g9f103f2a35 (build Apr 05 2022 19:15:58) complex          
  
 executed on             LinuxIFC date 2024.04.03  01:54:56
 running on  128 total cores
 distrk:  each k-point on   64 cores,    2 groups
 distr:  one band on NCORES_PER_BAND=   8 cores,    8 groups


--------------------------------------------------------------------------------------------------------


 INCAR:
 POTCAR:    PW_PBE Au 04Oct2007                   

 ----------------------------------------------------------------------------- 
|                                                                             |
|           W    W    AA    RRRRR   N    N  II  N    N   GGGG   !!!           |
|           W    W   A  A   R    R  NN   N  II  NN   N  G    G  !!!           |
|           W    W  A    A  R    R  N N  N  II  N N  N  G       !!!           |
|           W WW W  AAAAAA  RRRRR   N  N N  II  N  N N  G  GGG   !            |
|           WW  WW  A    A  R   R   N   NN  II  N   NN  G    G                |
|           W    W  A    A  R    R  N    N  II  N    N   GGGG   !!!           |
|                                                                             |
|      You have enabled k-point parallelism (KPAR>1).                         |
|      This developmental code was originally  written by Paul Kent at ORNL,  |
|      and carefully double checked in Vienna.                                |
|      GW as well as linear response parallelism added by Martijn Marsman     |
|      and Georg Kresse.                                                      |
|      Carefully verify results versus KPAR=1.                                |
|      Report problems to Paul Kent and Vienna.                               |
|                                                                             |
 ----------------------------------------------------------------------------- 

 POTCAR:    PW_PBE Au 04Oct2007                   
   VRHFIN =Au: s1d10                                                            
   LEXCH  = PE                                                                  
   EATOM  =   926.0867 eV,   68.0654 Ry                                         
                                                                                
   TITEL  = PAW_PBE Au 04Oct2007                                                
   LULTRA =        F    use ultrasoft PP ?                                      
   IUNSCR =        1    unscreen: 0-lin 1-nonlin 2-no                           
   RPACOR =    2.330    partial core radius                                     
   POMASS =  196.966; ZVAL   =   11.000    mass and valenz                      
   RCORE  =    2.500    outmost cutoff radius                                   
   RWIGS  =    2.840; RWIGS  =    1.503    wigner-seitz radius (au A)           
   ENMAX  =  229.943; ENMIN  =  172.457 eV                                      
   ICORE  =        3    local potential                                         
   LCOR   =        T    correct aug charges                                     
   LPAW   =        T    paw PP                                                  
   EAUG   =  356.670                                                            
   DEXC   =    0.000                                                            
   RMAX   =    2.562    core radius for proj-oper                               
   RAUG   =    1.300    factor for augmentation sphere                          
   RDEP   =    2.598    radius for radial grids                                 
   RDEPT  =    2.193    core radius for aug-charge                              
                                                                                
   Atomic configuration                                                         
   16 entries                                                                   
     n  l   j            E        occ.                                          
     1  0  0.50    -80748.5001   2.0000                                         
     2  0  0.50    -14244.7466   2.0000                                         
     2  1  1.50    -12310.9591   6.0000                                         
     3  0  0.50     -3362.1768   2.0000                                         
     3  1  1.50     -2801.5463   6.0000                                         
     3  2  2.50     -2203.8206  10.0000                                         
     4  0  0.50      -729.8168   2.0000                                         
     4  1  1.50      -546.0527   6.0000                                         
     4  2  2.50      -325.7302  10.0000                                         
     4  3  3.50       -81.1472  14.0000                                         
     5  0  0.50      -108.3201   2.0000                                         
     5  1  1.50       -59.7479   6.0000                                         
     5  2  2.50        -6.8783  10.0000                                         
     6  0  0.50        -5.7602   1.0000                                         
     6  1  1.50        -6.8029   0.0000                                         
     5  3  2.50        -1.3606   0.0000                                         
   Description                                                                  
     l       E           TYP  RCUT    TYP  RCUT                                 
     2     -6.8782861     23  2.500                                             
     2     -8.2388687     23  2.500                                             
     0     -5.7601759     23  2.500                                             
     0     -0.8493231     23  2.500                                             
     1     -2.7211652     23  2.500                                             
     1     27.2116520     23  2.500                                             
     3     -1.3605826     23  2.500                                             
  local pseudopotential read in
  partial core-charges read in
  partial kinetic energy density read in
  atomic valenz-charges read in
  non local Contribution for L=           2  read in
    real space projection operators read in
  non local Contribution for L=           2  read in
    real space projection operators read in
  non local Contribution for L=           0  read in
    real space projection operators read in
  non local Contribution for L=           0  read in
    real space projection operators read in
  non local Contribution for L=           1  read in
    real space projection operators read in
  non local Contribution for L=           1  read in
    real space projection operators read in
    PAW grid and wavefunctions read in
 
   number of l-projection  operators is LMAX  =           6
   number of lm-projection operators is LMMAX =          18
 
  PW_PBE Au 04Oct2007                   :
 energy of atom  1       EATOM= -926.0867
 kinetic energy error for atom=    0.0013 (will be added to EATOM!!)
 
 
 POSCAR: Au1                                     
  positions in direct lattice
  velocities in cartesian coordinates
  No initial velocities read in
 exchange correlation table for  LEXCH =        8
   RHO(1)=    0.500       N(1)  =     2000
   RHO(2)=  100.500       N(2)  =     4000
 


--------------------------------------------------------------------------------------------------------


 ion  position               nearest neighbor table
   1  0.000  0.000  0.000-
 
  LATTYP: Found a face centered cubic cell.
 ALAT       =     4.1712884904
  
  Lattice vectors:
  
 A1 = (   0.0000000000,   2.0856442452,   2.0856442452)
 A2 = (   2.0856442452,   0.0000000000,   2.0856442452)
 A3 = (   2.0856442452,   2.0856442452,   0.0000000000)


Analysis of symmetry for initial positions (statically):
=====================================================================
 Subroutine PRICEL returns:
 Original cell was already a primitive cell.
 

 Routine SETGRP: Setting up the symmetry group for a 
 face centered cubic supercell.


 Subroutine GETGRP returns: Found 48 space group operations
 (whereof 48 operations were pure point group operations)
 out of a pool of 48 trial point group operations.


The static configuration has the point symmetry O_h .


Analysis of symmetry for dynamics (positions and initial velocities):
=====================================================================
 Subroutine PRICEL returns:
 Original cell was already a primitive cell.
 

 Routine SETGRP: Setting up the symmetry group for a 
 face centered cubic supercell.


 Subroutine GETGRP returns: Found 48 space group operations
 (whereof 48 operations were pure point group operations)
 out of a pool of 48 trial point group operations.


The dynamic configuration has the point symmetry O_h .


 Subroutine INISYM returns: Found 48 space group operations
 (whereof 48 operations are pure point group operations),
 and found     1 'primitive' translations

 
 
 KPOINTS: Automatic mesh                          

Automatic generation of k-mesh.
Space group operators:
 irot       det(A)        alpha          n_x          n_y          n_z        tau_x        tau_y        tau_z
    1     1.000000     0.000000     1.000000     0.000000     0.000000     0.000000     0.000000     0.000000
    2    -1.000000     0.000000     1.000000     0.000000     0.000000     0.000000     0.000000     0.000000
    3     1.000000   120.000000    -0.577350    -0.577350    -0.577350     0.000000     0.000000     0.000000
    4    -1.000000   120.000000    -0.577350    -0.577350    -0.577350     0.000000     0.000000     0.000000
    5     1.000000   120.000000     0.577350     0.577350     0.577350     0.000000     0.000000     0.000000
    6    -1.000000   120.000000     0.577350     0.577350     0.577350     0.000000     0.000000     0.000000
    7     1.000000    90.000000     0.000000     0.000000    -1.000000     0.000000     0.000000     0.000000
    8    -1.000000    90.000000     0.000000     0.000000    -1.000000     0.000000     0.000000     0.000000
    9     1.000000   180.000000     0.000000     0.707107     0.707107     0.000000     0.000000     0.000000
   10    -1.000000   180.000000     0.000000     0.707107     0.707107     0.000000     0.000000     0.000000
   11     1.000000    90.000000     0.000000     1.000000     0.000000     0.000000     0.000000     0.000000
   12    -1.000000    90.000000     0.000000     1.000000     0.000000     0.000000     0.000000     0.000000
   13     1.000000   180.000000     0.000000     0.000000     1.000000     0.000000     0.000000     0.000000
   14    -1.000000   180.000000     0.000000     0.000000     1.000000     0.000000     0.000000     0.000000
   15     1.000000   120.000000    -0.577350     0.577350     0.577350     0.000000     0.000000     0.000000
   16    -1.000000   120.000000    -0.577350     0.577350     0.577350     0.000000     0.000000     0.000000
   17     1.000000   120.000000    -0.577350     0.577350    -0.577350     0.000000     0.000000     0.000000
   18    -1.000000   120.000000    -0.577350     0.577350    -0.577350     0.000000     0.000000     0.000000
   19     1.000000    90.000000     0.000000     0.000000     1.000000     0.000000     0.000000     0.000000
   20    -1.000000    90.000000     0.000000     0.000000     1.000000     0.000000     0.000000     0.000000
   21     1.000000    90.000000    -1.000000     0.000000     0.000000     0.000000     0.000000     0.000000
   22    -1.000000    90.000000    -1.000000     0.000000     0.000000     0.000000     0.000000     0.000000
   23     1.000000   180.000000     0.707107     0.000000     0.707107     0.000000     0.000000     0.000000
   24    -1.000000   180.000000     0.707107     0.000000     0.707107     0.000000     0.000000     0.000000
   25     1.000000   120.000000     0.577350    -0.577350     0.577350     0.000000     0.000000     0.000000
   26    -1.000000   120.000000     0.577350    -0.577350     0.577350     0.000000     0.000000     0.000000
   27     1.000000   120.000000    -0.577350    -0.577350     0.577350     0.000000     0.000000     0.000000
   28    -1.000000   120.000000    -0.577350    -0.577350     0.577350     0.000000     0.000000     0.000000
   29     1.000000   180.000000     1.000000     0.000000     0.000000     0.000000     0.000000     0.000000
   30    -1.000000   180.000000     1.000000     0.000000     0.000000     0.000000     0.000000     0.000000
   31     1.000000    90.000000     0.000000    -1.000000     0.000000     0.000000     0.000000     0.000000
   32    -1.000000    90.000000     0.000000    -1.000000     0.000000     0.000000     0.000000     0.000000
   33     1.000000   180.000000     0.707107     0.707107     0.000000     0.000000     0.000000     0.000000
   34    -1.000000   180.000000     0.707107     0.707107     0.000000     0.000000     0.000000     0.000000
   35     1.000000    90.000000     1.000000     0.000000     0.000000     0.000000     0.000000     0.000000
   36    -1.000000    90.000000     1.000000     0.000000     0.000000     0.000000     0.000000     0.000000
   37     1.000000   120.000000     0.577350    -0.577350    -0.577350     0.000000     0.000000     0.000000
   38    -1.000000   120.000000     0.577350    -0.577350    -0.577350     0.000000     0.000000     0.000000
   39     1.000000   180.000000     0.000000     1.000000     0.000000     0.000000     0.000000     0.000000
   40    -1.000000   180.000000     0.000000     1.000000     0.000000     0.000000     0.000000     0.000000
   41     1.000000   120.000000     0.577350     0.577350    -0.577350     0.000000     0.000000     0.000000
   42    -1.000000   120.000000     0.577350     0.577350    -0.577350     0.000000     0.000000     0.000000
   43     1.000000   180.000000     0.000000    -0.707107     0.707107     0.000000     0.000000     0.000000
   44    -1.000000   180.000000     0.000000    -0.707107     0.707107     0.000000     0.000000     0.000000
   45     1.000000   180.000000     0.707107    -0.707107     0.000000     0.000000     0.000000     0.000000
   46    -1.000000   180.000000     0.707107    -0.707107     0.000000     0.000000     0.000000     0.000000
   47     1.000000   180.000000     0.707107     0.000000    -0.707107     0.000000     0.000000     0.000000
   48    -1.000000   180.000000     0.707107     0.000000    -0.707107     0.000000     0.000000     0.000000
 
 Subroutine IBZKPT returns following result:
 ===========================================
 
 Found    120 irreducible k-points:
 
 Following reciprocal coordinates:
            Coordinates               Weight
  0.000000  0.000000  0.000000      1.000000
  0.066667  0.000000  0.000000      8.000000
  0.133333  0.000000  0.000000      8.000000
  0.200000  0.000000  0.000000      8.000000
  0.266667  0.000000  0.000000      8.000000
  0.333333  0.000000  0.000000      8.000000
  0.400000  0.000000  0.000000      8.000000
  0.466667  0.000000  0.000000      8.000000
  0.066667  0.066667  0.000000      6.000000
  0.133333  0.066667  0.000000     24.000000
  0.200000  0.066667  0.000000     24.000000
  0.266667  0.066667  0.000000     24.000000
  0.333333  0.066667  0.000000     24.000000
  0.400000  0.066667  0.000000     24.000000
  0.466667  0.066667  0.000000     24.000000
 -0.466667  0.066667  0.000000     24.000000
 -0.400000  0.066667  0.000000     24.000000
 -0.333333  0.066667  0.000000     24.000000
 -0.266667  0.066667  0.000000     24.000000
 -0.200000  0.066667  0.000000     24.000000
 -0.133333  0.066667  0.000000     24.000000
 -0.066667  0.066667  0.000000     12.000000
  0.133333  0.133333  0.000000      6.000000
  0.200000  0.133333  0.000000     24.000000
  0.266667  0.133333  0.000000     24.000000
  0.333333  0.133333  0.000000     24.000000
  0.400000  0.133333  0.000000     24.000000
  0.466667  0.133333  0.000000     24.000000
 -0.466667  0.133333  0.000000     24.000000
 -0.400000  0.133333  0.000000     24.000000
 -0.333333  0.133333  0.000000     24.000000
 -0.266667  0.133333  0.000000     24.000000
 -0.200000  0.133333  0.000000     24.000000
 -0.133333  0.133333  0.000000     12.000000
  0.200000  0.200000  0.000000      6.000000
  0.266667  0.200000  0.000000     24.000000
  0.333333  0.200000  0.000000     24.000000
  0.400000  0.200000  0.000000     24.000000
  0.466667  0.200000  0.000000     24.000000
 -0.466667  0.200000  0.000000     24.000000
 -0.400000  0.200000  0.000000     24.000000
 -0.333333  0.200000  0.000000     24.000000
 -0.266667  0.200000  0.000000     24.000000
 -0.200000  0.200000  0.000000     12.000000
  0.266667  0.266667  0.000000      6.000000
  0.333333  0.266667  0.000000     24.000000
  0.400000  0.266667  0.000000     24.000000
  0.466667  0.266667  0.000000     24.000000
 -0.466667  0.266667  0.000000     24.000000
 -0.400000  0.266667  0.000000     24.000000
 -0.333333  0.266667  0.000000     24.000000
 -0.266667  0.266667  0.000000     12.000000
  0.333333  0.333333  0.000000      6.000000
  0.400000  0.333333  0.000000     24.000000
  0.466667  0.333333  0.000000     24.000000
 -0.466667  0.333333  0.000000     24.000000
 -0.400000  0.333333  0.000000     24.000000
 -0.333333  0.333333  0.000000     12.000000
  0.400000  0.400000  0.000000      6.000000
  0.466667  0.400000  0.000000     24.000000
 -0.466667  0.400000  0.000000     24.000000
 -0.400000  0.400000  0.000000     12.000000
  0.466667  0.466667  0.000000      6.000000
 -0.466667  0.466667  0.000000     12.000000
  0.200000  0.133333  0.066667     24.000000
  0.266667  0.133333  0.066667     48.000000
  0.333333  0.133333  0.066667     48.000000
  0.400000  0.133333  0.066667     48.000000
  0.466667  0.133333  0.066667     48.000000
 -0.466667  0.133333  0.066667     48.000000
  0.266667  0.200000  0.066667     24.000000
  0.333333  0.200000  0.066667     48.000000
  0.400000  0.200000  0.066667     48.000000
  0.466667  0.200000  0.066667     48.000000
 -0.466667  0.200000  0.066667     48.000000
 -0.400000  0.200000  0.066667     48.000000
 -0.333333  0.200000  0.066667     48.000000
 -0.266667  0.200000  0.066667     48.000000
 -0.200000  0.200000  0.066667     48.000000
 -0.133333  0.200000  0.066667     24.000000
  0.333333  0.266667  0.066667     24.000000
  0.400000  0.266667  0.066667     48.000000
  0.466667  0.266667  0.066667     48.000000
 -0.466667  0.266667  0.066667     48.000000
 -0.400000  0.266667  0.066667     48.000000
 -0.333333  0.266667  0.066667     48.000000
 -0.266667  0.266667  0.066667     48.000000
 -0.200000  0.266667  0.066667     24.000000
  0.400000  0.333333  0.066667     24.000000
  0.466667  0.333333  0.066667     48.000000
 -0.466667  0.333333  0.066667     48.000000
 -0.400000  0.333333  0.066667     48.000000
 -0.333333  0.333333  0.066667     48.000000
 -0.266667  0.333333  0.066667     24.000000
  0.466667  0.400000  0.066667     24.000000
 -0.466667  0.400000  0.066667     48.000000
 -0.400000  0.400000  0.066667     48.000000
 -0.333333  0.400000  0.066667     24.000000
 -0.466667  0.466667  0.066667     24.000000
 -0.400000  0.466667  0.066667     24.000000
  0.400000  0.266667  0.133333     24.000000
  0.466667  0.266667  0.133333     48.000000
 -0.466667  0.266667  0.133333     48.000000
 -0.400000  0.266667  0.133333     48.000000
  0.466667  0.333333  0.133333     24.000000
 -0.466667  0.333333  0.133333     48.000000
 -0.400000  0.333333  0.133333     48.000000
 -0.333333  0.333333  0.133333     48.000000
 -0.266667  0.333333  0.133333     48.000000
 -0.200000  0.333333  0.133333     24.000000
 -0.466667  0.400000  0.133333     24.000000
 -0.400000  0.400000  0.133333     48.000000
 -0.333333  0.400000  0.133333     48.000000
 -0.266667  0.400000  0.133333     24.000000
 -0.400000  0.466667  0.133333     24.000000
 -0.333333  0.466667  0.133333     24.000000
 -0.400000  0.400000  0.200000     24.000000
 -0.333333  0.400000  0.200000     48.000000
 -0.333333  0.466667  0.200000     24.000000
 -0.266667  0.466667  0.200000     24.000000
 
 Following cartesian coordinates:
            Coordinates               Weight
  0.000000  0.000000  0.000000      1.000000
 -0.015982  0.015982  0.015982      8.000000
 -0.031965  0.031965  0.031965      8.000000
 -0.047947  0.047947  0.047947      8.000000
 -0.063929  0.063929  0.063929      8.000000
 -0.079911  0.079911  0.079911      8.000000
 -0.095894  0.095894  0.095894      8.000000
 -0.111876  0.111876  0.111876      8.000000
  0.000000  0.000000  0.031965      6.000000
 -0.015982  0.015982  0.047947     24.000000
 -0.031965  0.031965  0.063929     24.000000
 -0.047947  0.047947  0.079911     24.000000
 -0.063929  0.063929  0.095894     24.000000
 -0.079911  0.079911  0.111876     24.000000
 -0.095894  0.095894  0.127858     24.000000
  0.127858 -0.127858 -0.095894     24.000000
  0.111876 -0.111876 -0.079911     24.000000
  0.095894 -0.095894 -0.063929     24.000000
  0.079911 -0.079911 -0.047947     24.000000
  0.063929 -0.063929 -0.031965     24.000000
  0.047947 -0.047947 -0.015982     24.000000
  0.031965 -0.031965  0.000000     12.000000
  0.000000  0.000000  0.063929      6.000000
 -0.015982  0.015982  0.079911     24.000000
 -0.031965  0.031965  0.095894     24.000000
 -0.047947  0.047947  0.111876     24.000000
 -0.063929  0.063929  0.127858     24.000000
 -0.079911  0.079911  0.143840     24.000000
  0.143840 -0.143840 -0.079911     24.000000
  0.127858 -0.127858 -0.063929     24.000000
  0.111876 -0.111876 -0.047947     24.000000
  0.095894 -0.095894 -0.031965     24.000000
  0.079911 -0.079911 -0.015982     24.000000
  0.063929 -0.063929  0.000000     12.000000
  0.000000  0.000000  0.095894      6.000000
 -0.015982  0.015982  0.111876     24.000000
 -0.031965  0.031965  0.127858     24.000000
 -0.047947  0.047947  0.143840     24.000000
 -0.063929  0.063929  0.159823     24.000000
  0.159823 -0.159823 -0.063929     24.000000
  0.143840 -0.143840 -0.047947     24.000000
  0.127858 -0.127858 -0.031965     24.000000
  0.111876 -0.111876 -0.015982     24.000000
  0.095894 -0.095894  0.000000     12.000000
  0.000000  0.000000  0.127858      6.000000
 -0.015982  0.015982  0.143840     24.000000
 -0.031965  0.031965  0.159823     24.000000
 -0.047947  0.047947  0.175805     24.000000
  0.175805 -0.175805 -0.047947     24.000000
  0.159823 -0.159823 -0.031965     24.000000
  0.143840 -0.143840 -0.015982     24.000000
  0.127858 -0.127858  0.000000     12.000000
  0.000000  0.000000  0.159823      6.000000
 -0.015982  0.015982  0.175805     24.000000
 -0.031965  0.031965  0.191787     24.000000
  0.191787 -0.191787 -0.031965     24.000000
  0.175805 -0.175805 -0.015982     24.000000
  0.159823 -0.159823  0.000000     12.000000
  0.000000  0.000000  0.191787      6.000000
 -0.015982  0.015982  0.207770     24.000000
  0.207770 -0.207770 -0.015982     24.000000
  0.191787 -0.191787  0.000000     12.000000
  0.000000  0.000000  0.223752      6.000000
  0.223752 -0.223752  0.000000     12.000000
 -0.000000  0.031965  0.063929     24.000000
 -0.015982  0.047947  0.079911     48.000000
 -0.031965  0.063929  0.095894     48.000000
 -0.047947  0.079911  0.111876     48.000000
 -0.063929  0.095894  0.127858     48.000000
  0.159823 -0.127858 -0.095894     48.000000
  0.000000  0.031965  0.095894     24.000000
 -0.015982  0.047947  0.111876     48.000000
 -0.031965  0.063929  0.127858     48.000000
 -0.047947  0.079911  0.143840     48.000000
  0.175805 -0.143840 -0.079911     48.000000
  0.159823 -0.127858 -0.063929     48.000000
  0.143840 -0.111876 -0.047947     48.000000
  0.127858 -0.095894 -0.031965     48.000000
  0.111876 -0.079911 -0.015982     48.000000
  0.095894 -0.063929  0.000000     24.000000
  0.000000  0.031965  0.127858     24.000000
 -0.015982  0.047947  0.143840     48.000000
 -0.031965  0.063929  0.159823     48.000000
  0.191787 -0.159823 -0.063929     48.000000
  0.175805 -0.143840 -0.047947     48.000000
  0.159823 -0.127858 -0.031965     48.000000
  0.143840 -0.111876 -0.015982     48.000000
  0.127858 -0.095894 -0.000000     24.000000
 -0.000000  0.031965  0.159823     24.000000
 -0.015982  0.047947  0.175805     48.000000
  0.207770 -0.175805 -0.047947     48.000000
  0.191787 -0.159823 -0.031965     48.000000
  0.175805 -0.143840 -0.015982     48.000000
  0.159823 -0.127858 -0.000000     24.000000
  0.000000  0.031965  0.191787     24.000000
  0.223752 -0.191787 -0.031965     48.000000
  0.207770 -0.175805 -0.015982     48.000000
  0.191787 -0.159823  0.000000     24.000000
  0.239734 -0.207770 -0.015982     24.000000
  0.223752 -0.191787 -0.000000     24.000000
 -0.000000  0.063929  0.127858     24.000000
 -0.015982  0.079911  0.143840     48.000000
  0.207770 -0.143840 -0.079911     48.000000
  0.191787 -0.127858 -0.063929     48.000000
 -0.000000  0.063929  0.159823     24.000000
  0.223752 -0.159823 -0.063929     48.000000
  0.207770 -0.143840 -0.047947     48.000000
  0.191787 -0.127858 -0.031965     48.000000
  0.175805 -0.111876 -0.015982     48.000000
  0.159823 -0.095894 -0.000000     24.000000
  0.239734 -0.175805 -0.047947     24.000000
  0.223752 -0.159823 -0.031965     48.000000
  0.207770 -0.143840 -0.015982     48.000000
  0.191787 -0.127858  0.000000     24.000000
  0.239734 -0.175805 -0.015982     24.000000
  0.223752 -0.159823  0.000000     24.000000
  0.239734 -0.143840 -0.047947     24.000000
  0.223752 -0.127858 -0.031965     48.000000
  0.239734 -0.143840 -0.015982     24.000000
  0.223752 -0.127858  0.000000     24.000000
 
 TETIRR: Found    484 inequivalent tetrahedra from    20250


--------------------------------------------------------------------------------------------------------




 Dimension of arrays:
   k-points           NKPTS =    120   k-points in BZ     NKDIM =    120   number of bands    NBANDS=     16
   number of dos      NEDOS =   9999   number of ions     NIONS =      1
   non local maximal  LDIM  =      6   non local SUM 2l+1 LMDIM =     18
   total plane-waves  NPLWV =  13824
   max r-space proj   IRMAX =      1   max aug-charges    IRDMAX= 372884
   dimension x,y,z NGX =    24 NGY =   24 NGZ =   24
   dimension x,y,z NGXF=    48 NGYF=   48 NGZF=   48
   support grid    NGXF=    96 NGYF=   96 NGZF=   96
   ions per type =               1
   NGX,Y,Z   is equivalent  to a cutoff of  13.53, 13.53, 13.53 a.u.
   NGXF,Y,Z  is equivalent  to a cutoff of  27.05, 27.05, 27.05 a.u.

 SYSTEM =  Au                                      
 POSCAR =  Au1                                     

 Startparameter for this run:
   NWRITE =      2    write-flag & timer
   PREC   = a         normal or accurate (medium, high low for compatibility)
   ISTART =      0    job   : 0-new  1-cont  2-samecut
   ICHARG =      2    charge: 1-file 2-atom 10-const
   ISPIN  =      1    spin polarized calculation?
   LNONCOLLINEAR =      F non collinear calculations
   LSORBIT =      F    spin-orbit coupling
   INIWAV =      1    electr: 0-lowe 1-rand  2-diag
   LASPH  =      T    aspherical Exc in radial PAW
   METAGGA=      F    non-selfconsistent MetaGGA calc.

 Electronic Relaxation 1
   ENCUT  =  600.0 eV  44.10 Ry    6.64 a.u.   5.89  5.89  5.89*2*pi/ulx,y,z
   ENINI  =  600.0     initial cutoff
   ENAUG  =  356.7 eV  augmentation charge cutoff
   NELM   =    500;   NELMIN=  2; NELMDL=  0     # of ELM steps 
   EDIFF  = 0.1E-06   stopping-criterion for ELM
   LREAL  =      F    real-space projection
   NLSPLINE    = F    spline interpolate recip. space projectors
   LCOMPAT=      F    compatible to vasp.4.4
   GGA_COMPAT  = T    GGA compatible to vasp.4.4-vasp.4.6
   LMAXPAW     = -100 max onsite density
   LMAXMIX     =    2 max onsite mixed and CHGCAR
   VOSKOWN=      0    Vosko Wilk Nusair interpolation
   ROPT   =    0.00000
 Ionic relaxation
   EDIFFG = -.8E-02   stopping-criterion for IOM
   NSW    =      0    number of steps for IOM
   NBLOCK =      1;   KBLOCK =      1    inner block; outer block 
   IBRION =     -1    ionic relax: 0-MD 1-quasi-New 2-CG
   NFREE  =      0    steps in history (QN), initial steepest desc. (CG)
   ISIF   =      2    stress and relaxation
   IWAVPR =     10    prediction:  0-non 1-charg 2-wave 3-comb
   ISYM   =      2    0-nonsym 1-usesym 2-fastsym
   LCORR  =      T    Harris-Foulkes like correction to forces

   POTIM  = 0.5000    time-step for ionic-motion
   TEIN   =    0.0    initial temperature
   TEBEG  =    0.0;   TEEND  =   0.0 temperature during run
   SMASS  =  -3.00    Nose mass-parameter (am)
   estimated Nose-frequenzy (Omega)   =  0.10E-29 period in steps =****** mass=  -0.199E-27a.u.
   SCALEE = 1.0000    scale energy and forces
   NPACO  =    256;   APACO  = 16.0  distance and # of slots for P.C.
   PSTRESS=    0.0 pullay stress

  Mass of Ions in am
   POMASS = 196.97
  Ionic Valenz
   ZVAL   =  11.00
  Atomic Wigner-Seitz radii
   RWIGS  =  -1.00
  virtual crystal weights 
   VCA    =   1.00
   NELECT =      11.0000    total number of electrons
   NUPDOWN=      -1.0000    fix difference up-down

 DOS related values:
   EMIN   =  10.00;   EMAX   =-10.00  energy-range for DOS
   EFERMI =   0.00
   ISMEAR =    -5;   SIGMA  =   0.00  broadening in eV -4-tet -1-fermi 0-gaus

 Electronic relaxation 2 (details)
   IALGO  =     38    algorithm
   LDIAG  =      T    sub-space diagonalisation (order eigenvalues)
   LSUBROT=      F    optimize rotation matrix (better conditioning)
   TURBO    =      0    0=normal 1=particle mesh
   IRESTART =      0    0=no restart 2=restart with 2 vectors
   NREBOOT  =      0    no. of reboots
   NMIN     =      0    reboot dimension
   EREF     =   0.00    reference energy to select bands
   IMIX   =      4    mixing-type and parameters
     AMIX     =   0.20;   BMIX     =  0.00
     AMIX_MAG =   0.80;   BMIX_MAG =  0.00
     AMIN     =   0.10
     WC   =   100.;   INIMIX=   1;  MIXPRE=   1;  MAXMIX= -45

 Intra band minimization:
   WEIMIN = 0.0000     energy-eigenvalue tresh-hold
   EBREAK =  0.16E-08  absolut break condition
   DEPER  =   0.30     relativ break condition  

   TIME   =   0.40     timestep for ELM

  volume/ion in A,a.u.               =      18.14       122.45
  Fermi-wavevector in a.u.,A,eV,Ry     =   1.385550  2.618310 26.119763  1.919748
  Thomas-Fermi vector in A             =   2.509949
 
 Write flags
   LWAVE        =      F    write WAVECAR
   LDOWNSAMPLE  =      F    k-point downsampling of WAVECAR
   LCHARG       =      T    write CHGCAR
   LVTOT        =      F    write LOCPOT, total local potential
   LVHAR        =      F    write LOCPOT, Hartree potential only
   LELF         =      F    write electronic localiz. function (ELF)
   LORBIT       =     11    0 simple, 1 ext, 2 COOP (PROOUT), +10 PAW based schemes


 Dipole corrections
   LMONO  =      F    monopole corrections only (constant potential shift)
   LDIPOL =      F    correct potential (dipole corrections)
   IDIPOL =      0    1-x, 2-y, 3-z, 4-all directions 
   EPSILON=  1.0000000 bulk dielectric constant

 Exchange correlation treatment:
   GGA     =    PE    GGA type
   LEXCH   =     8    internal setting for exchange type
   VOSKOWN=      0    Vosko Wilk Nusair interpolation
   LHFCALC =     F    Hartree Fock is set to
   LHFONE  =     F    Hartree Fock one center treatment
   AEXX    =    0.0000 exact exchange contribution

 Linear response parameters
   LEPSILON=     F    determine dielectric tensor
   LRPA    =     F    only Hartree local field effects (RPA)
   LNABLA  =     F    use nabla operator in PAW spheres
   LVEL    =     F    velocity operator in full k-point grid
   LINTERFAST=   F  fast interpolation
   KINTER  =     0    interpolate to denser k-point grid
   CSHIFT  =0.1000    complex shift for real part using Kramers Kronig
   OMEGAMAX=  -1.0    maximum frequency
   DEG_THRESHOLD= 0.2000000E-02 threshold for treating states as degnerate
   RTIME   =   -0.100 relaxation time in fs
  (WPLASMAI=    0.000 imaginary part of plasma frequency in eV, 0.658/RTIME)
   DFIELD  = 0.0000000 0.0000000 0.0000000 field for delta impulse in time
 
 Orbital magnetization related:
   ORBITALMAG=     F  switch on orbital magnetization
   LCHIMAG   =     F  perturbation theory with respect to B field
   DQ        =  0.001000  dq finite difference perturbation B field
   LLRAUG    =     F  two centre corrections for induced B field



--------------------------------------------------------------------------------------------------------


 Static calculation
 charge density and potential will be updated during run
 non-spin polarized calculation
 Variant of blocked Davidson
 Davidson routine will perform the subspace rotation
 perform sub-space diagonalisation
    after iterative eigenvector-optimisation
 modified Broyden-mixing scheme, WC =      100.0
 initial mixing is a Kerker type mixing with AMIX =  0.2000 and BMIX =      0.0000
 Hartree-type preconditioning will be used
 using additional bands           10
 reciprocal scheme for non local part
 use partial core corrections
 calculate Harris-corrections to forces 
   (improved forces if not selfconsistent)
 use gradient corrections 
 use of overlap-Matrix (Vanderbilt PP)
 Fermi weights with tetrahedron method with Bloechl corrections


--------------------------------------------------------------------------------------------------------


  energy-cutoff  :      600.00
  volume of cell :       18.14
      direct lattice vectors                 reciprocal lattice vectors
     0.000000000  2.085644245  2.085644245    -0.239734078  0.239734078  0.239734078
     2.085644245  0.000000000  2.085644245     0.239734078 -0.239734078  0.239734078
     2.085644245  2.085644245  0.000000000     0.239734078  0.239734078 -0.239734078

  length of vectors
     2.949546378  2.949546378  2.949546378     0.415231603  0.415231603  0.415231603


 
 k-points in units of 2pi/SCALE and weight: Automatic mesh                          
   0.00000000  0.00000000  0.00000000       0.000
  -0.01598227  0.01598227  0.01598227       0.002
  -0.03196454  0.03196454  0.03196454       0.002
  -0.04794682  0.04794682  0.04794682       0.002
  -0.06392909  0.06392909  0.06392909       0.002
  -0.07991136  0.07991136  0.07991136       0.002
  -0.09589363  0.09589363  0.09589363       0.002
  -0.11187590  0.11187590  0.11187590       0.002
   0.00000000  0.00000000  0.03196454       0.002
  -0.01598227  0.01598227  0.04794682       0.007
  -0.03196454  0.03196454  0.06392909       0.007
  -0.04794682  0.04794682  0.07991136       0.007
  -0.06392909  0.06392909  0.09589363       0.007
  -0.07991136  0.07991136  0.11187590       0.007
  -0.09589363  0.09589363  0.12785817       0.007
   0.12785817 -0.12785817 -0.09589363       0.007
   0.11187590 -0.11187590 -0.07991136       0.007
   0.09589363 -0.09589363 -0.06392909       0.007
   0.07991136 -0.07991136 -0.04794682       0.007
   0.06392909 -0.06392909 -0.03196454       0.007
   0.04794682 -0.04794682 -0.01598227       0.007
   0.03196454 -0.03196454  0.00000000       0.004
   0.00000000  0.00000000  0.06392909       0.002
  -0.01598227  0.01598227  0.07991136       0.007
  -0.03196454  0.03196454  0.09589363       0.007
  -0.04794682  0.04794682  0.11187590       0.007
  -0.06392909  0.06392909  0.12785817       0.007
  -0.07991136  0.07991136  0.14384045       0.007
   0.14384045 -0.14384045 -0.07991136       0.007
   0.12785817 -0.12785817 -0.06392909       0.007
   0.11187590 -0.11187590 -0.04794682       0.007
   0.09589363 -0.09589363 -0.03196454       0.007
   0.07991136 -0.07991136 -0.01598227       0.007
   0.06392909 -0.06392909  0.00000000       0.004
   0.00000000  0.00000000  0.09589363       0.002
  -0.01598227  0.01598227  0.11187590       0.007
  -0.03196454  0.03196454  0.12785817       0.007
  -0.04794682  0.04794682  0.14384045       0.007
  -0.06392909  0.06392909  0.15982272       0.007
   0.15982272 -0.15982272 -0.06392909       0.007
   0.14384045 -0.14384045 -0.04794682       0.007
   0.12785817 -0.12785817 -0.03196454       0.007
   0.11187590 -0.11187590 -0.01598227       0.007
   0.09589363 -0.09589363  0.00000000       0.004
   0.00000000  0.00000000  0.12785817       0.002
  -0.01598227  0.01598227  0.14384045       0.007
  -0.03196454  0.03196454  0.15982272       0.007
  -0.04794682  0.04794682  0.17580499       0.007
   0.17580499 -0.17580499 -0.04794682       0.007
   0.15982272 -0.15982272 -0.03196454       0.007
   0.14384045 -0.14384045 -0.01598227       0.007
   0.12785817 -0.12785817  0.00000000       0.004
   0.00000000  0.00000000  0.15982272       0.002
  -0.01598227  0.01598227  0.17580499       0.007
  -0.03196454  0.03196454  0.19178726       0.007
   0.19178726 -0.19178726 -0.03196454       0.007
   0.17580499 -0.17580499 -0.01598227       0.007
   0.15982272 -0.15982272  0.00000000       0.004
   0.00000000  0.00000000  0.19178726       0.002
  -0.01598227  0.01598227  0.20776953       0.007
   0.20776953 -0.20776953 -0.01598227       0.007
   0.19178726 -0.19178726  0.00000000       0.004
   0.00000000  0.00000000  0.22375181       0.002
   0.22375181 -0.22375181  0.00000000       0.004
  -0.00000000  0.03196454  0.06392909       0.007
  -0.01598227  0.04794682  0.07991136       0.014
  -0.03196454  0.06392909  0.09589363       0.014
  -0.04794682  0.07991136  0.11187590       0.014
  -0.06392909  0.09589363  0.12785817       0.014
   0.15982272 -0.12785817 -0.09589363       0.014
   0.00000000  0.03196454  0.09589363       0.007
  -0.01598227  0.04794682  0.11187590       0.014
  -0.03196454  0.06392909  0.12785817       0.014
  -0.04794682  0.07991136  0.14384045       0.014
   0.17580499 -0.14384045 -0.07991136       0.014
   0.15982272 -0.12785817 -0.06392909       0.014
   0.14384045 -0.11187590 -0.04794682       0.014
   0.12785817 -0.09589363 -0.03196454       0.014
   0.11187590 -0.07991136 -0.01598227       0.014
   0.09589363 -0.06392909  0.00000000       0.007
   0.00000000  0.03196454  0.12785817       0.007
  -0.01598227  0.04794682  0.14384045       0.014
  -0.03196454  0.06392909  0.15982272       0.014
   0.19178726 -0.15982272 -0.06392909       0.014
   0.17580499 -0.14384045 -0.04794682       0.014
   0.15982272 -0.12785817 -0.03196454       0.014
   0.14384045 -0.11187590 -0.01598227       0.014
   0.12785817 -0.09589363 -0.00000000       0.007
  -0.00000000  0.03196454  0.15982272       0.007
  -0.01598227  0.04794682  0.17580499       0.014
   0.20776953 -0.17580499 -0.04794682       0.014
   0.19178726 -0.15982272 -0.03196454       0.014
   0.17580499 -0.14384045 -0.01598227       0.014
   0.15982272 -0.12785817 -0.00000000       0.007
   0.00000000  0.03196454  0.19178726       0.007
   0.22375181 -0.19178726 -0.03196454       0.014
   0.20776953 -0.17580499 -0.01598227       0.014
   0.19178726 -0.15982272  0.00000000       0.007
   0.23973408 -0.20776953 -0.01598227       0.007
   0.22375181 -0.19178726 -0.00000000       0.007
  -0.00000000  0.06392909  0.12785817       0.007
  -0.01598227  0.07991136  0.14384045       0.014
   0.20776953 -0.14384045 -0.07991136       0.014
   0.19178726 -0.12785817 -0.06392909       0.014
  -0.00000000  0.06392909  0.15982272       0.007
   0.22375181 -0.15982272 -0.06392909       0.014
   0.20776953 -0.14384045 -0.04794682       0.014
   0.19178726 -0.12785817 -0.03196454       0.014
   0.17580499 -0.11187590 -0.01598227       0.014
   0.15982272 -0.09589363 -0.00000000       0.007
   0.23973408 -0.17580499 -0.04794682       0.007
   0.22375181 -0.15982272 -0.03196454       0.014
   0.20776953 -0.14384045 -0.01598227       0.014
   0.19178726 -0.12785817  0.00000000       0.007
   0.23973408 -0.17580499 -0.01598227       0.007
   0.22375181 -0.15982272  0.00000000       0.007
   0.23973408 -0.14384045 -0.04794682       0.007
   0.22375181 -0.12785817 -0.03196454       0.014
   0.23973408 -0.14384045 -0.01598227       0.007
   0.22375181 -0.12785817  0.00000000       0.007
 
 k-points in reciprocal lattice and weights: Automatic mesh                          
   0.00000000  0.00000000  0.00000000       0.000
   0.06666667  0.00000000  0.00000000       0.002
   0.13333333  0.00000000  0.00000000       0.002
   0.20000000  0.00000000  0.00000000       0.002
   0.26666667  0.00000000  0.00000000       0.002
   0.33333333  0.00000000  0.00000000       0.002
   0.40000000  0.00000000  0.00000000       0.002
   0.46666667  0.00000000  0.00000000       0.002
   0.06666667  0.06666667  0.00000000       0.002
   0.13333333  0.06666667  0.00000000       0.007
   0.20000000  0.06666667  0.00000000       0.007
   0.26666667  0.06666667  0.00000000       0.007
   0.33333333  0.06666667  0.00000000       0.007
   0.40000000  0.06666667  0.00000000       0.007
   0.46666667  0.06666667  0.00000000       0.007
  -0.46666667  0.06666667  0.00000000       0.007
  -0.40000000  0.06666667  0.00000000       0.007
  -0.33333333  0.06666667  0.00000000       0.007
  -0.26666667  0.06666667  0.00000000       0.007
  -0.20000000  0.06666667  0.00000000       0.007
  -0.13333333  0.06666667  0.00000000       0.007
  -0.06666667  0.06666667  0.00000000       0.004
   0.13333333  0.13333333  0.00000000       0.002
   0.20000000  0.13333333  0.00000000       0.007
   0.26666667  0.13333333  0.00000000       0.007
   0.33333333  0.13333333  0.00000000       0.007
   0.40000000  0.13333333  0.00000000       0.007
   0.46666667  0.13333333  0.00000000       0.007
  -0.46666667  0.13333333  0.00000000       0.007
  -0.40000000  0.13333333  0.00000000       0.007
  -0.33333333  0.13333333  0.00000000       0.007
  -0.26666667  0.13333333  0.00000000       0.007
  -0.20000000  0.13333333  0.00000000       0.007
  -0.13333333  0.13333333  0.00000000       0.004
   0.20000000  0.20000000  0.00000000       0.002
   0.26666667  0.20000000  0.00000000       0.007
   0.33333333  0.20000000  0.00000000       0.007
   0.40000000  0.20000000  0.00000000       0.007
   0.46666667  0.20000000  0.00000000       0.007
  -0.46666667  0.20000000  0.00000000       0.007
  -0.40000000  0.20000000  0.00000000       0.007
  -0.33333333  0.20000000  0.00000000       0.007
  -0.26666667  0.20000000  0.00000000       0.007
  -0.20000000  0.20000000  0.00000000       0.004
   0.26666667  0.26666667  0.00000000       0.002
   0.33333333  0.26666667  0.00000000       0.007
   0.40000000  0.26666667  0.00000000       0.007
   0.46666667  0.26666667  0.00000000       0.007
  -0.46666667  0.26666667  0.00000000       0.007
  -0.40000000  0.26666667  0.00000000       0.007
  -0.33333333  0.26666667  0.00000000       0.007
  -0.26666667  0.26666667  0.00000000       0.004
   0.33333333  0.33333333  0.00000000       0.002
   0.40000000  0.33333333  0.00000000       0.007
   0.46666667  0.33333333  0.00000000       0.007
  -0.46666667  0.33333333  0.00000000       0.007
  -0.40000000  0.33333333  0.00000000       0.007
  -0.33333333  0.33333333  0.00000000       0.004
   0.40000000  0.40000000  0.00000000       0.002
   0.46666667  0.40000000  0.00000000       0.007
  -0.46666667  0.40000000  0.00000000       0.007
  -0.40000000  0.40000000  0.00000000       0.004
   0.46666667  0.46666667  0.00000000       0.002
  -0.46666667  0.46666667  0.00000000       0.004
   0.20000000  0.13333333  0.06666667       0.007
   0.26666667  0.13333333  0.06666667       0.014
   0.33333333  0.13333333  0.06666667       0.014
   0.40000000  0.13333333  0.06666667       0.014
   0.46666667  0.13333333  0.06666667       0.014
  -0.46666667  0.13333333  0.06666667       0.014
   0.26666667  0.20000000  0.06666667       0.007
   0.33333333  0.20000000  0.06666667       0.014
   0.40000000  0.20000000  0.06666667       0.014
   0.46666667  0.20000000  0.06666667       0.014
  -0.46666667  0.20000000  0.06666667       0.014
  -0.40000000  0.20000000  0.06666667       0.014
  -0.33333333  0.20000000  0.06666667       0.014
  -0.26666667  0.20000000  0.06666667       0.014
  -0.20000000  0.20000000  0.06666667       0.014
  -0.13333333  0.20000000  0.06666667       0.007
   0.33333333  0.26666667  0.06666667       0.007
   0.40000000  0.26666667  0.06666667       0.014
   0.46666667  0.26666667  0.06666667       0.014
  -0.46666667  0.26666667  0.06666667       0.014
  -0.40000000  0.26666667  0.06666667       0.014
  -0.33333333  0.26666667  0.06666667       0.014
  -0.26666667  0.26666667  0.06666667       0.014
  -0.20000000  0.26666667  0.06666667       0.007
   0.40000000  0.33333333  0.06666667       0.007
   0.46666667  0.33333333  0.06666667       0.014
  -0.46666667  0.33333333  0.06666667       0.014
  -0.40000000  0.33333333  0.06666667       0.014
  -0.33333333  0.33333333  0.06666667       0.014
  -0.26666667  0.33333333  0.06666667       0.007
   0.46666667  0.40000000  0.06666667       0.007
  -0.46666667  0.40000000  0.06666667       0.014
  -0.40000000  0.40000000  0.06666667       0.014
  -0.33333333  0.40000000  0.06666667       0.007
  -0.46666667  0.46666667  0.06666667       0.007
  -0.40000000  0.46666667  0.06666667       0.007
   0.40000000  0.26666667  0.13333333       0.007
   0.46666667  0.26666667  0.13333333       0.014
  -0.46666667  0.26666667  0.13333333       0.014
  -0.40000000  0.26666667  0.13333333       0.014
   0.46666667  0.33333333  0.13333333       0.007
  -0.46666667  0.33333333  0.13333333       0.014
  -0.40000000  0.33333333  0.13333333       0.014
  -0.33333333  0.33333333  0.13333333       0.014
  -0.26666667  0.33333333  0.13333333       0.014
  -0.20000000  0.33333333  0.13333333       0.007
  -0.46666667  0.40000000  0.13333333       0.007
  -0.40000000  0.40000000  0.13333333       0.014
  -0.33333333  0.40000000  0.13333333       0.014
  -0.26666667  0.40000000  0.13333333       0.007
  -0.40000000  0.46666667  0.13333333       0.007
  -0.33333333  0.46666667  0.13333333       0.007
  -0.40000000  0.40000000  0.20000000       0.007
  -0.33333333  0.40000000  0.20000000       0.014
  -0.33333333  0.46666667  0.20000000       0.007
  -0.26666667  0.46666667  0.20000000       0.007
 
 position of ions in fractional coordinates (direct lattice) 
   0.00000000  0.00000000  0.00000000
 
 position of ions in cartesian coordinates  (Angst):
   0.00000000  0.00000000  0.00000000
 


--------------------------------------------------------------------------------------------------------


 k-point  1 :   0.0000 0.0000 0.0000  plane waves:     609
 k-point  2 :   0.0667 0.0000 0.0000  plane waves:     606
 k-point  3 :   0.1333 0.0000 0.0000  plane waves:     591
 k-point  4 :   0.2000 0.0000 0.0000  plane waves:     592
 k-point  5 :   0.2667 0.0000 0.0000  plane waves:     607
 k-point  6 :   0.3333 0.0000 0.0000  plane waves:     601
 k-point  7 :   0.4000 0.0000 0.0000  plane waves:     604
 k-point  8 :   0.4667 0.0000 0.0000  plane waves:     598
 k-point  9 :   0.0667 0.0667 0.0000  plane waves:     601
 k-point 10 :   0.1333 0.0667 0.0000  plane waves:     597
 k-point 11 :   0.2000 0.0667 0.0000  plane waves:     592
 k-point 12 :   0.2667 0.0667 0.0000  plane waves:     597
 k-point 13 :   0.3333 0.0667 0.0000  plane waves:     604
 k-point 14 :   0.4000 0.0667 0.0000  plane waves:     602
 k-point 15 :   0.4667 0.0667 0.0000  plane waves:     602
 k-point 16 :  -0.4667 0.0667 0.0000  plane waves:     602
 k-point 17 :  -0.4000 0.0667 0.0000  plane waves:     605
 k-point 18 :  -0.3333 0.0667 0.0000  plane waves:     607
 k-point 19 :  -0.2667 0.0667 0.0000  plane waves:     605
 k-point 20 :  -0.2000 0.0667 0.0000  plane waves:     598
 k-point 21 :  -0.1333 0.0667 0.0000  plane waves:     593
 k-point 22 :  -0.0667 0.0667 0.0000  plane waves:     596
 k-point 23 :   0.1333 0.1333 0.0000  plane waves:     597
 k-point 24 :   0.2000 0.1333 0.0000  plane waves:     588
 k-point 25 :   0.2667 0.1333 0.0000  plane waves:     602
 k-point 26 :   0.3333 0.1333 0.0000  plane waves:     604
 k-point 27 :   0.4000 0.1333 0.0000  plane waves:     605
 k-point 28 :   0.4667 0.1333 0.0000  plane waves:     602
 k-point 29 :  -0.4667 0.1333 0.0000  plane waves:     604
 k-point 30 :  -0.4000 0.1333 0.0000  plane waves:     602
 k-point 31 :  -0.3333 0.1333 0.0000  plane waves:     608
 k-point 32 :  -0.2667 0.1333 0.0000  plane waves:     607
 k-point 33 :  -0.2000 0.1333 0.0000  plane waves:     603
 k-point 34 :  -0.1333 0.1333 0.0000  plane waves:     606
 k-point 35 :   0.2000 0.2000 0.0000  plane waves:     584
 k-point 36 :   0.2667 0.2000 0.0000  plane waves:     595
 k-point 37 :   0.3333 0.2000 0.0000  plane waves:     604
 k-point 38 :   0.4000 0.2000 0.0000  plane waves:     607
 k-point 39 :   0.4667 0.2000 0.0000  plane waves:     605
 k-point 40 :  -0.4667 0.2000 0.0000  plane waves:     603
 k-point 41 :  -0.4000 0.2000 0.0000  plane waves:     597
 k-point 42 :  -0.3333 0.2000 0.0000  plane waves:     599
 k-point 43 :  -0.2667 0.2000 0.0000  plane waves:     611
 k-point 44 :  -0.2000 0.2000 0.0000  plane waves:     602
 k-point 45 :   0.2667 0.2667 0.0000  plane waves:     592
 k-point 46 :   0.3333 0.2667 0.0000  plane waves:     605
 k-point 47 :   0.4000 0.2667 0.0000  plane waves:     608
 k-point 48 :   0.4667 0.2667 0.0000  plane waves:     607
 k-point 49 :  -0.4667 0.2667 0.0000  plane waves:     609
 k-point 50 :  -0.4000 0.2667 0.0000  plane waves:     605
 k-point 51 :  -0.3333 0.2667 0.0000  plane waves:     604
 k-point 52 :  -0.2667 0.2667 0.0000  plane waves:     610
 k-point 53 :   0.3333 0.3333 0.0000  plane waves:     612
 k-point 54 :   0.4000 0.3333 0.0000  plane waves:     611
 k-point 55 :   0.4667 0.3333 0.0000  plane waves:     606
 k-point 56 :  -0.4667 0.3333 0.0000  plane waves:     613
 k-point 57 :  -0.4000 0.3333 0.0000  plane waves:     612
 k-point 58 :  -0.3333 0.3333 0.0000  plane waves:     606
 k-point 59 :   0.4000 0.4000 0.0000  plane waves:     612
 k-point 60 :   0.4667 0.4000 0.0000  plane waves:     610
 k-point 61 :  -0.4667 0.4000 0.0000  plane waves:     610
 k-point 62 :  -0.4000 0.4000 0.0000  plane waves:     614
 k-point 63 :   0.4667 0.4667 0.0000  plane waves:     620
 k-point 64 :  -0.4667 0.4667 0.0000  plane waves:     612
 k-point 65 :   0.2000 0.1333 0.0667  plane waves:     595
 k-point 66 :   0.2667 0.1333 0.0667  plane waves:     597
 k-point 67 :   0.3333 0.1333 0.0667  plane waves:     605
 k-point 68 :   0.4000 0.1333 0.0667  plane waves:     603
 k-point 69 :   0.4667 0.1333 0.0667  plane waves:     605
 k-point 70 :  -0.4667 0.1333 0.0667  plane waves:     602
 k-point 71 :   0.2667 0.2000 0.0667  plane waves:     595
 k-point 72 :   0.3333 0.2000 0.0667  plane waves:     603
 k-point 73 :   0.4000 0.2000 0.0667  plane waves:     606
 k-point 74 :   0.4667 0.2000 0.0667  plane waves:     605
 k-point 75 :  -0.4667 0.2000 0.0667  plane waves:     602
 k-point 76 :  -0.4000 0.2000 0.0667  plane waves:     600
 k-point 77 :  -0.3333 0.2000 0.0667  plane waves:     602
 k-point 78 :  -0.2667 0.2000 0.0667  plane waves:     607
 k-point 79 :  -0.2000 0.2000 0.0667  plane waves:     607
 k-point 80 :  -0.1333 0.2000 0.0667  plane waves:     603
 k-point 81 :   0.3333 0.2667 0.0667  plane waves:     603
 k-point 82 :   0.4000 0.2667 0.0667  plane waves:     609
 k-point 83 :   0.4667 0.2667 0.0667  plane waves:     608
 k-point 84 :  -0.4667 0.2667 0.0667  plane waves:     606
 k-point 85 :  -0.4000 0.2667 0.0667  plane waves:     610
 k-point 86 :  -0.3333 0.2667 0.0667  plane waves:     609
 k-point 87 :  -0.2667 0.2667 0.0667  plane waves:     607
 k-point 88 :  -0.2000 0.2667 0.0667  plane waves:     609
 k-point 89 :   0.4000 0.3333 0.0667  plane waves:     608
 k-point 90 :   0.4667 0.3333 0.0667  plane waves:     607
 k-point 91 :  -0.4667 0.3333 0.0667  plane waves:     607
 k-point 92 :  -0.4000 0.3333 0.0667  plane waves:     610
 k-point 93 :  -0.3333 0.3333 0.0667  plane waves:     607
 k-point 94 :  -0.2667 0.3333 0.0667  plane waves:     604
 k-point 95 :   0.4667 0.4000 0.0667  plane waves:     610
 k-point 96 :  -0.4667 0.4000 0.0667  plane waves:     610
 k-point 97 :  -0.4000 0.4000 0.0667  plane waves:     610
 k-point 98 :  -0.3333 0.4000 0.0667  plane waves:     608
 k-point 99 :  -0.4667 0.4667 0.0667  plane waves:     610
 k-point ** :  -0.4000 0.4667 0.0667  plane waves:     614
 k-point ** :   0.4000 0.2667 0.1333  plane waves:     604
 k-point ** :   0.4667 0.2667 0.1333  plane waves:     607
 k-point ** :  -0.4667 0.2667 0.1333  plane waves:     605
 k-point ** :  -0.4000 0.2667 0.1333  plane waves:     606
 k-point ** :   0.4667 0.3333 0.1333  plane waves:     607
 k-point ** :  -0.4667 0.3333 0.1333  plane waves:     603
 k-point ** :  -0.4000 0.3333 0.1333  plane waves:     610
 k-point ** :  -0.3333 0.3333 0.1333  plane waves:     608
 k-point ** :  -0.2667 0.3333 0.1333  plane waves:     605
 k-point ** :  -0.2000 0.3333 0.1333  plane waves:     609
 k-point ** :  -0.4667 0.4000 0.1333  plane waves:     605
 k-point ** :  -0.4000 0.4000 0.1333  plane waves:     609
 k-point ** :  -0.3333 0.4000 0.1333  plane waves:     610
 k-point ** :  -0.2667 0.4000 0.1333  plane waves:     606
 k-point ** :  -0.4000 0.4667 0.1333  plane waves:     613
 k-point ** :  -0.3333 0.4667 0.1333  plane waves:     613
 k-point ** :  -0.4000 0.4000 0.2000  plane waves:     609
 k-point ** :  -0.3333 0.4000 0.2000  plane waves:     612
 k-point ** :  -0.3333 0.4667 0.2000  plane waves:     612
 k-point ** :  -0.2667 0.4667 0.2000  plane waves:     611

 maximum and minimum number of plane-waves per node :        83       67

 maximum number of plane-waves:       620
 maximum index in each direction: 
   IXMAX=    6   IYMAX=    5   IZMAX=    5
   IXMIN=   -6   IYMIN=   -6   IZMIN=   -6


 parallel 3D FFT for wavefunctions:
    minimum data exchange during FFTs selected (reduces bandwidth)
 parallel 3D FFT for charge:
    minimum data exchange during FFTs selected (reduces bandwidth)


 total amount of memory used by VASP MPI-rank0    32368. kBytes
=======================================================================

   base      :      30000. kBytes
   nonl-proj :       1383. kBytes
   fftplans  :        388. kBytes
   grid      :        183. kBytes
   one-center:         15. kBytes
   wavefun   :        399. kBytes
 
     INWAV:  cpu time    0.0000: real time    0.0000
 Broyden mixing: mesh for mixing (old mesh)
   NGX = 11   NGY = 11   NGZ = 11
  (NGX  = 48   NGY  = 48   NGZ  = 48)
  gives a total of   1331 points

 initial charge density was supplied:
 charge density of overlapping atoms calculated
 number of electron      11.0000000 magnetization 
 keeping initial charge density in first step


--------------------------------------------------------------------------------------------------------


 Maximum index for augmentation-charges         8779 (set IRDMAX)


--------------------------------------------------------------------------------------------------------


 First call to EWALD:  gamma=   0.675
 Maximum number of real-space cells 3x 3x 3
 Maximum number of reciprocal cells 3x 3x 3

    FEWALD:  cpu time    0.0012: real time    0.0057


--------------------------------------- Iteration      1(   1)  ---------------------------------------


    POTLOK:  cpu time    0.0084: real time    0.0381
    SETDIJ:  cpu time    0.1537: real time    0.1559
     EDDAV:  cpu time    0.1796: real time    0.1837
 BZINTS: Fermi energy: 17.317047; 11.000000 electrons
         Band energy: 120.422900;  BLOECHL correction: -0.468810
       DOS:  cpu time    0.0360: real time    0.0360
    --------------------------------------------
      LOOP:  cpu time    0.3778: real time    0.4137

 eigenvalue-minimisations  :  3848
 total energy-change (2. order) : 0.5953389E+02  (-0.5764883E+03)
 number of electron      11.0000000 magnetization 
 augmentation part       11.0000000 magnetization 

 Free energy of the ion-electron system (eV)
  ---------------------------------------------------
  alpha Z        PSCENC =        64.19470378
  Ewald energy   TEWEN  =      -957.56330713
  -Hartree energ DENC   =      -132.13858927
  -exchange      EXHF   =         0.00000000
  -V(xc)+E(xc)   XCENC  =        15.44536944
  PAW double counting   =       874.09750335     -851.01013482
  entropy T*S    EENTRO =         0.00000000
  eigenvalues    EBANDS =       120.42289982
  atomic energy  EATOM  =       926.08544073
  Solvation  Ediel_sol  =         0.00000000
  ---------------------------------------------------
  free energy    TOTEN  =        59.53388590 eV

  energy without entropy =       59.53388590  energy(sigma->0) =       59.53388590


--------------------------------------------------------------------------------------------------------




--------------------------------------- Iteration      1(   2)  ---------------------------------------


     EDDAV:  cpu time    0.1982: real time    0.1999
 BZINTS: Fermi energy:  9.184492; 11.000000 electrons
         Band energy:  58.504212;  BLOECHL correction: -0.034822
       DOS:  cpu time    0.0293: real time    0.0293
    --------------------------------------------
      LOOP:  cpu time    0.2276: real time    0.2292

 eigenvalue-minimisations  :  5176
 total energy-change (2. order) :-0.6191869E+02  (-0.5797565E+02)
 number of electron      11.0000000 magnetization 
 augmentation part       11.0000000 magnetization 

 Free energy of the ion-electron system (eV)
  ---------------------------------------------------
  alpha Z        PSCENC =        64.19470378
  Ewald energy   TEWEN  =      -957.56330713
  -Hartree energ DENC   =      -132.13858927
  -exchange      EXHF   =         0.00000000
  -V(xc)+E(xc)   XCENC  =        15.44536944
  PAW double counting   =       874.09750335     -851.01013482
  entropy T*S    EENTRO =         0.00000000
  eigenvalues    EBANDS =        58.50421243
  atomic energy  EATOM  =       926.08544073
  Solvation  Ediel_sol  =         0.00000000
  ---------------------------------------------------
  free energy    TOTEN  =        -2.38480150 eV

  energy without entropy =       -2.38480150  energy(sigma->0) =       -2.38480150


--------------------------------------------------------------------------------------------------------




--------------------------------------- Iteration      1(   3)  ---------------------------------------


     EDDAV:  cpu time    0.1866: real time    0.1866
 BZINTS: Fermi energy:  9.100631; 11.000000 electrons
         Band energy:  57.411531;  BLOECHL correction: -0.034737
       DOS:  cpu time    0.0286: real time    0.0286
    --------------------------------------------
      LOOP:  cpu time    0.2152: real time    0.2152

 eigenvalue-minimisations  :  4816
 total energy-change (2. order) :-0.1092681E+01  (-0.1091857E+01)
 number of electron      11.0000000 magnetization 
 augmentation part       11.0000000 magnetization 

 Free energy of the ion-electron system (eV)
  ---------------------------------------------------
  alpha Z        PSCENC =        64.19470378
  Ewald energy   TEWEN  =      -957.56330713
  -Hartree energ DENC   =      -132.13858927
  -exchange      EXHF   =         0.00000000
  -V(xc)+E(xc)   XCENC  =        15.44536944
  PAW double counting   =       874.09750335     -851.01013482
  entropy T*S    EENTRO =         0.00000000
  eigenvalues    EBANDS =        57.41153128
  atomic energy  EATOM  =       926.08544073
  Solvation  Ediel_sol  =         0.00000000
  ---------------------------------------------------
  free energy    TOTEN  =        -3.47748265 eV

  energy without entropy =       -3.47748265  energy(sigma->0) =       -3.47748265


--------------------------------------------------------------------------------------------------------




--------------------------------------- Iteration      1(   4)  ---------------------------------------


     EDDAV:  cpu time    0.1891: real time    0.1892
 BZINTS: Fermi energy:  9.100282; 11.000000 electrons
         Band energy:  57.407525;  BLOECHL correction: -0.034735
       DOS:  cpu time    0.0301: real time    0.0301
    --------------------------------------------
      LOOP:  cpu time    0.2192: real time    0.2192

 eigenvalue-minimisations  :  4928
 total energy-change (2. order) :-0.4006613E-02  (-0.4007050E-02)
 number of electron      11.0000000 magnetization 
 augmentation part       11.0000000 magnetization 

 Free energy of the ion-electron system (eV)
  ---------------------------------------------------
  alpha Z        PSCENC =        64.19470378
  Ewald energy   TEWEN  =      -957.56330713
  -Hartree energ DENC   =      -132.13858927
  -exchange      EXHF   =         0.00000000
  -V(xc)+E(xc)   XCENC  =        15.44536944
  PAW double counting   =       874.09750335     -851.01013482
  entropy T*S    EENTRO =         0.00000000
  eigenvalues    EBANDS =        57.40752467
  atomic energy  EATOM  =       926.08544073
  Solvation  Ediel_sol  =         0.00000000
  ---------------------------------------------------
  free energy    TOTEN  =        -3.48148926 eV

  energy without entropy =       -3.48148926  energy(sigma->0) =       -3.48148926


--------------------------------------------------------------------------------------------------------




--------------------------------------- Iteration      1(   5)  ---------------------------------------


     EDDAV:  cpu time    0.1832: real time    0.1832
 BZINTS: Fermi energy:  9.100279; 11.000000 electrons
         Band energy:  57.407495;  BLOECHL correction: -0.034735
       DOS:  cpu time    0.0298: real time    0.0298
    CHARGE:  cpu time    0.0691: real time    0.0694
    MIXING:  cpu time    0.0040: real time    0.0044
    --------------------------------------------
      LOOP:  cpu time    0.2862: real time    0.2868

 eigenvalue-minimisations  :  4928
 total energy-change (2. order) :-0.2960881E-04  (-0.2961232E-04)
 number of electron      11.0000000 magnetization 
 augmentation part        3.8687827 magnetization 

 Broyden mixing:
  rms(total) = 0.77170E+00    rms(broyden)= 0.77170E+00
  rms(prec ) = 0.14108E+01
  weight for this iteration     100.00

 Free energy of the ion-electron system (eV)
  ---------------------------------------------------
  alpha Z        PSCENC =        64.19470378
  Ewald energy   TEWEN  =      -957.56330713
  -Hartree energ DENC   =      -132.13858927
  -exchange      EXHF   =         0.00000000
  -V(xc)+E(xc)   XCENC  =        15.44536944
  PAW double counting   =       874.09750335     -851.01013482
  entropy T*S    EENTRO =         0.00000000
  eigenvalues    EBANDS =        57.40749506
  atomic energy  EATOM  =       926.08544073
  Solvation  Ediel_sol  =         0.00000000
  ---------------------------------------------------
  free energy    TOTEN  =        -3.48151887 eV

  energy without entropy =       -3.48151887  energy(sigma->0) =       -3.48151887


--------------------------------------------------------------------------------------------------------




--------------------------------------- Iteration      1(   6)  ---------------------------------------


    POTLOK:  cpu time    0.0030: real time    0.0072
    SETDIJ:  cpu time    0.1516: real time    0.1525
     EDDAV:  cpu time    0.1908: real time    0.1915
 BZINTS: Fermi energy:  8.820174; 11.000000 electrons
         Band energy:  53.881351;  BLOECHL correction: -0.036186
       DOS:  cpu time    0.0295: real time    0.0296
    CHARGE:  cpu time    0.0682: real time    0.0682
    MIXING:  cpu time    0.0037: real time    0.0039
    --------------------------------------------
      LOOP:  cpu time    0.4469: real time    0.4530

 eigenvalue-minimisations  :  4992
 total energy-change (2. order) : 0.1825580E+00  (-0.2019928E-01)
 number of electron      11.0000000 magnetization 
 augmentation part        3.9433018 magnetization 

 Broyden mixing:
  rms(total) = 0.61997E+00    rms(broyden)= 0.61997E+00
  rms(prec ) = 0.91214E+00
  weight for this iteration     100.00

 eigenvalues of (default mixing * dielectric matrix)
  average eigenvalue GAMMA=   3.5413
  3.5413

 Free energy of the ion-electron system (eV)
  ---------------------------------------------------
  alpha Z        PSCENC =        64.19470378
  Ewald energy   TEWEN  =      -957.56330713
  -Hartree energ DENC   =      -127.64933324
  -exchange      EXHF   =         0.00000000
  -V(xc)+E(xc)   XCENC  =        15.24555930
  PAW double counting   =       900.75132562     -878.24470110
  entropy T*S    EENTRO =         0.00000000
  eigenvalues    EBANDS =        53.88135120
  atomic energy  EATOM  =       926.08544073
  Solvation  Ediel_sol  =         0.00000000
  ---------------------------------------------------
  free energy    TOTEN  =        -3.29896084 eV

  energy without entropy =       -3.29896084  energy(sigma->0) =       -3.29896084


--------------------------------------------------------------------------------------------------------




--------------------------------------- Iteration      1(   7)  ---------------------------------------


    POTLOK:  cpu time    0.0030: real time    0.0030
    SETDIJ:  cpu time    0.1523: real time    0.1523
     EDDAV:  cpu time    0.1850: real time    0.1850
 BZINTS: Fermi energy:  8.478708; 11.000000 electrons
         Band energy:  49.154942;  BLOECHL correction: -0.038240
       DOS:  cpu time    0.0315: real time    0.0315
    CHARGE:  cpu time    0.0655: real time    0.0655
    MIXING:  cpu time    0.0027: real time    0.0027
    --------------------------------------------
      LOOP:  cpu time    0.4400: real time    0.4400

 eigenvalue-minimisations  :  5096
 total energy-change (2. order) : 0.7639305E-01  (-0.3451201E-01)
 number of electron      11.0000000 magnetization 
 augmentation part        4.0397017 magnetization 

 Broyden mixing:
  rms(total) = 0.39736E+00    rms(broyden)= 0.39736E+00
  rms(prec ) = 0.40186E+00
  weight for this iteration     100.00

 eigenvalues of (default mixing * dielectric matrix)
  average eigenvalue GAMMA=   5.2218
  2.1161  8.3275

 Free energy of the ion-electron system (eV)
  ---------------------------------------------------
  alpha Z        PSCENC =        64.19470378
  Ewald energy   TEWEN  =      -957.56330713
  -Hartree energ DENC   =      -121.58496824
  -exchange      EXHF   =         0.00000000
  -V(xc)+E(xc)   XCENC  =        14.97675428
  PAW double counting   =       954.88559948     -933.37173303
  entropy T*S    EENTRO =         0.00000000
  eigenvalues    EBANDS =        49.15494234
  atomic energy  EATOM  =       926.08544073
  Solvation  Ediel_sol  =         0.00000000
  ---------------------------------------------------
  free energy    TOTEN  =        -3.22256779 eV

  energy without entropy =       -3.22256779  energy(sigma->0) =       -3.22256779


--------------------------------------------------------------------------------------------------------




--------------------------------------- Iteration      1(   8)  ---------------------------------------


    POTLOK:  cpu time    0.0031: real time    0.0031
    SETDIJ:  cpu time    0.1523: real time    0.1524
     EDDAV:  cpu time    0.1618: real time    0.1662
 BZINTS: Fermi energy:  8.503461; 11.000000 electrons
         Band energy:  49.427213;  BLOECHL correction: -0.038123
       DOS:  cpu time    0.0313: real time    0.0313
    CHARGE:  cpu time    0.0654: real time    0.0654
    MIXING:  cpu time    0.0015: real time    0.0015
    --------------------------------------------
      LOOP:  cpu time    0.4155: real time    0.4199

 eigenvalue-minimisations  :  4336
 total energy-change (2. order) : 0.1741219E-02  (-0.6662833E-03)
 number of electron      11.0000000 magnetization 
 augmentation part        4.0307198 magnetization 

 Broyden mixing:
  rms(total) = 0.25566E+00    rms(broyden)= 0.25566E+00
  rms(prec ) = 0.26069E+00
  weight for this iteration     100.00

 eigenvalues of (default mixing * dielectric matrix)
  average eigenvalue GAMMA=   2.7382
  5.0915  0.9617  2.1612

 Free energy of the ion-electron system (eV)
  ---------------------------------------------------
  alpha Z        PSCENC =        64.19470378
  Ewald energy   TEWEN  =      -957.56330713
  -Hartree energ DENC   =      -120.43644232
  -exchange      EXHF   =         0.00000000
  -V(xc)+E(xc)   XCENC  =        14.91637532
  PAW double counting   =      1061.34321771    -1041.18802743
  entropy T*S    EENTRO =         0.00000000
  eigenvalues    EBANDS =        49.42721278
  atomic energy  EATOM  =       926.08544073
  Solvation  Ediel_sol  =         0.00000000
  ---------------------------------------------------
  free energy    TOTEN  =        -3.22082657 eV

  energy without entropy =       -3.22082657  energy(sigma->0) =       -3.22082657


--------------------------------------------------------------------------------------------------------




--------------------------------------- Iteration      1(   9)  ---------------------------------------


    POTLOK:  cpu time    0.0025: real time    0.0064
    SETDIJ:  cpu time    0.1526: real time    0.1526
     EDDAV:  cpu time    0.1743: real time    0.1774
 BZINTS: Fermi energy:  8.508618; 11.000000 electrons
         Band energy:  49.538077;  BLOECHL correction: -0.038066
       DOS:  cpu time    0.0318: real time    0.0318
    CHARGE:  cpu time    0.0655: real time    0.0655
    MIXING:  cpu time    0.0028: real time    0.0028
    --------------------------------------------
      LOOP:  cpu time    0.4295: real time    0.4366

 eigenvalue-minimisations  :  4752
 total energy-change (2. order) : 0.1149159E-02  (-0.2546340E-04)
 number of electron      11.0000000 magnetization 
 augmentation part        4.0298175 magnetization 

 Broyden mixing:
  rms(total) = 0.46653E-02    rms(broyden)= 0.46652E-02
  rms(prec ) = 0.51057E-02
  weight for this iteration     100.00

 eigenvalues of (default mixing * dielectric matrix)
  average eigenvalue GAMMA=   2.2532
  5.0717  2.1620  0.9815  0.7977

 Free energy of the ion-electron system (eV)
  ---------------------------------------------------
  alpha Z        PSCENC =        64.19470378
  Ewald energy   TEWEN  =      -957.56330713
  -Hartree energ DENC   =      -121.13325570
  -exchange      EXHF   =         0.00000000
  -V(xc)+E(xc)   XCENC  =        14.95037152
  PAW double counting   =      1018.30293787     -997.59464517
  entropy T*S    EENTRO =         0.00000000
  eigenvalues    EBANDS =        49.53807670
  atomic energy  EATOM  =       926.08544073
  Solvation  Ediel_sol  =         0.00000000
  ---------------------------------------------------
  free energy    TOTEN  =        -3.21967741 eV

  energy without entropy =       -3.21967741  energy(sigma->0) =       -3.21967741


--------------------------------------------------------------------------------------------------------




--------------------------------------- Iteration      1(  10)  ---------------------------------------


    POTLOK:  cpu time    0.0029: real time    0.0029
    SETDIJ:  cpu time    0.1515: real time    0.1515
     EDDAV:  cpu time    0.1880: real time    0.1880
 BZINTS: Fermi energy:  8.508419; 11.000000 electrons
         Band energy:  49.535643;  BLOECHL correction: -0.038067
       DOS:  cpu time    0.0312: real time    0.0312
    CHARGE:  cpu time    0.0651: real time    0.0651
    MIXING:  cpu time    0.0016: real time    0.0016
    --------------------------------------------
      LOOP:  cpu time    0.4403: real time    0.4404

 eigenvalue-minimisations  :  5072
 total energy-change (2. order) :-0.4506254E-06  (-0.2195607E-06)
 number of electron      11.0000000 magnetization 
 augmentation part        4.0298312 magnetization 

 Broyden mixing:
  rms(total) = 0.42723E-02    rms(broyden)= 0.42723E-02
  rms(prec ) = 0.45981E-02
  weight for this iteration     100.00

 eigenvalues of (default mixing * dielectric matrix)
  average eigenvalue GAMMA=   2.5836
  5.1041  3.5853  2.1608  1.1047  0.9633

 Free energy of the ion-electron system (eV)
  ---------------------------------------------------
  alpha Z        PSCENC =        64.19470378
  Ewald energy   TEWEN  =      -957.56330713
  -Hartree energ DENC   =      -121.13230156
  -exchange      EXHF   =         0.00000000
  -V(xc)+E(xc)   XCENC  =        14.95029102
  PAW double counting   =      1018.49874033     -997.78888788
  entropy T*S    EENTRO =         0.00000000
  eigenvalues    EBANDS =        49.53564285
  atomic energy  EATOM  =       926.08544073
  Solvation  Ediel_sol  =         0.00000000
  ---------------------------------------------------
  free energy    TOTEN  =        -3.21967786 eV

  energy without entropy =       -3.21967786  energy(sigma->0) =       -3.21967786


--------------------------------------------------------------------------------------------------------




--------------------------------------- Iteration      1(  11)  ---------------------------------------


    POTLOK:  cpu time    0.0026: real time    0.0128
    SETDIJ:  cpu time    0.1517: real time    0.1517
     EDDAV:  cpu time    0.1941: real time    0.1941
 BZINTS: Fermi energy:  8.508013; 11.000000 electrons
         Band energy:  49.532078;  BLOECHL correction: -0.038066
       DOS:  cpu time    0.0310: real time    0.0310
    --------------------------------------------
      LOOP:  cpu time    0.3794: real time    0.3897

 eigenvalue-minimisations  :  5024
 total energy-change (2. order) : 0.8733991E-08  (-0.3806251E-07)
 number of electron      11.0000000 magnetization 
 augmentation part        4.0298312 magnetization 

 Free energy of the ion-electron system (eV)
  ---------------------------------------------------
  alpha Z        PSCENC =        64.19470378
  Ewald energy   TEWEN  =      -957.56330713
  -Hartree energ DENC   =      -121.14123063
  -exchange      EXHF   =         0.00000000
  -V(xc)+E(xc)   XCENC  =        14.95056043
  PAW double counting   =      1018.76191448     -998.03983784
  entropy T*S    EENTRO =         0.00000000
  eigenvalues    EBANDS =        49.53207834
  atomic energy  EATOM  =       926.08544073
  Solvation  Ediel_sol  =         0.00000000
  ---------------------------------------------------
  free energy    TOTEN  =        -3.21967785 eV

  energy without entropy =       -3.21967785  energy(sigma->0) =       -3.21967785


--------------------------------------------------------------------------------------------------------




 average (electrostatic) potential at core
  the test charge radii are     1.2098
  (the norm of the test charge is              1.0000)
       1 -64.9340
 
 
 
 E-fermi :   8.5080     XC(G=0): -12.3440     alpha+bet :-13.0865


 k-point     1 :       0.0000    0.0000    0.0000
  band No.  band energies     occupation 
      1      -0.7473      2.00000
      2       4.0932      2.00000
      3       4.0932      2.00000
      4       4.0932      2.00000
      5       5.4482      2.00000
      6       5.4482      2.00000
      7      23.0519      0.00000
      8      26.6902      0.00000
      9      26.6902      0.00000
     10      26.6902      0.00000
     11      31.4007      0.00000
     12      35.3861      0.00000
     13      35.3861      0.00000
     14      35.3861      0.00000
     15      36.7277      0.00000
     16      36.7277      0.00000

 k-point     2 :       0.0667    0.0000    0.0000
  band No.  band energies     occupation 
      1      -0.6009      2.00000
      2       4.0492      2.00000
      3       4.1414      2.00000
      4       4.1414      2.00000
      5       5.4276      2.00000
      6       5.4276      2.00000
      7      23.2043      0.00000
      8      25.7068      0.00000
      9      26.8452      0.00000
     10      26.8452      0.00000
     11      32.0599      0.00000
     12      33.9667      0.00000
     13      34.5540      0.00000
     14      34.5540      0.00000
     15      37.1201      0.00000
     16      37.1201      0.00000

 k-point     3 :       0.1333    0.0000    0.0000
  band No.  band energies     occupation 
      1      -0.1783      2.00000
      2       3.9478      2.00000
      3       4.2577      2.00000
      4       4.2577      2.00000
      5       5.3968      2.00000
      6       5.3968      2.00000
      7      23.2026      0.00000
      8      24.1040      0.00000
      9      27.2569      0.00000
     10      27.2569      0.00000
     11      30.9336      0.00000
     12      33.0327      0.00000
     13      33.0327      0.00000
     14      35.1073      0.00000
     15      37.5816      0.00000
     16      37.5816      0.00000

 k-point     4 :       0.2000    0.0000    0.0000
  band No.  band energies     occupation 
      1       0.4536      2.00000
      2       3.8896      2.00000
      3       4.3506      2.00000
      4       4.3506      2.00000
      5       5.4506      2.00000
      6       5.4506      2.00000
      7      21.1226      0.00000
      8      24.1159      0.00000
      9      27.6961      0.00000
     10      27.6961      0.00000
     11      29.7536      0.00000
     12      31.5671      0.00000
     13      31.5671      0.00000
     14      37.3217      0.00000
     15      37.9574      0.00000
     16      37.9574      0.00000

 k-point     5 :       0.2667    0.0000    0.0000
  band No.  band energies     occupation 
      1       1.1200      2.00000
      2       4.0844      2.00000
      3       4.3309      2.00000
      4       4.3309      2.00000
      5       5.6722      2.00000
      6       5.6722      2.00000
      7      18.5721      0.00000
      8      23.8783      0.00000
      9      27.5486      0.00000
     10      27.5486      0.00000
     11      29.8798      0.00000
     12      30.9316      0.00000
     13      30.9316      0.00000
     14      38.3209      0.00000
     15      38.3209      0.00000
     16      39.0159      0.00000

 k-point     6 :       0.3333    0.0000    0.0000
  band No.  band energies     occupation 
      1       1.5456      2.00000
      2       4.2327      2.00000
      3       4.2327      2.00000
      4       4.8225      2.00000
      5       6.0008      2.00000
      6       6.0008      2.00000
      7      15.9709      0.00000
      8      23.3096      0.00000
      9      26.6389      0.00000
     10      26.6389      0.00000
     11      31.0175      0.00000
     12      31.3355      0.00000
     13      31.3355      0.00000
     14      38.7096      0.00000
     15      38.7096      0.00000
     16      39.8946      0.00000

 k-point     7 :       0.4000    0.0000    0.0000
  band No.  band energies     occupation 
      1       1.6830      2.00000
      2       4.1312      2.00000
      3       4.1312      2.00000
      4       6.1119      2.00000
      5       6.3114      2.00000
      6       6.3114      2.00000
      7      13.5127      0.00000
      8      22.8024      0.00000
      9      25.7169      0.00000
     10      25.7169      0.00000
     11      31.9848      0.00000
     12      31.9848      0.00000
     13      32.4424      0.00000
     14      39.1013      0.00000
     15      39.1013      0.00000
     16      40.3912      0.00000

 k-point     8 :       0.4667    0.0000    0.0000
  band No.  band energies     occupation 
      1       1.7022      2.00000
      2       4.0712      2.00000
      3       4.0712      2.00000
      4       6.4981      2.00000
      5       6.4981      2.00000
      6       7.4991      2.00000
      7      11.5705      0.00000
      8      22.5256      0.00000
      9      25.1870      0.00000
     10      25.1870      0.00000
     11      32.4023      0.00000
     12      32.4023      0.00000
     13      33.4629      0.00000
     14      39.3777      0.00000
     15      39.3777      0.00000
     16      40.6916      0.00000

 k-point     9 :       0.0667    0.0667    0.0000
  band No.  band energies     occupation 
      1      -0.5518      2.00000
      2       3.9984      2.00000
      3       4.1776      2.00000
      4       4.1776      2.00000
      5       5.3479      2.00000
[...]
      7      12.2876      0.00000
      8      19.6410      0.00000
      9      21.0567      0.00000
     10      26.1331      0.00000
     11      31.4504      0.00000
     12      34.9587      0.00000
     13      35.4136      0.00000
     14      37.0351      0.00000
     15      39.6711      0.00000
     16      43.3570      0.00000

 k-point   105 :       0.4667    0.3333    0.1333
  band No.  band energies     occupation 
      1       2.6829      2.00000
      2       2.9769      2.00000
      3       4.1514      2.00000
      4       5.7836      2.00000
      5       5.9030      2.00000
      6       7.8283      1.98099
      7      17.3015      0.00000
      8      19.0229      0.00000
      9      21.2485      0.00000
     10      27.6282      0.00000
     11      27.8748      0.00000
     12      33.1656      0.00000
     13      35.9368      0.00000
     14      38.6284      0.00000
     15      39.8005      0.00000
     16      42.1369      0.00000

 k-point   106 :      -0.4667    0.3333    0.1333
  band No.  band energies     occupation 
      1       2.8229      2.00000
      2       3.1684      2.00000
      3       4.0362      2.00000
      4       5.6073      2.00000
      5       6.2738      2.00000
      6       9.0649      0.10967
      7      15.4693      0.00000
      8      18.3033      0.00000
      9      20.3028      0.00000
     10      27.4068      0.00000
     11      29.5972      0.00000
     12      33.2078      0.00000
     13      36.3164      0.00000
     14      38.0589      0.00000
     15      41.7257      0.00000
     16      41.9340      0.00000

 k-point   107 :      -0.4000    0.3333    0.1333
  band No.  band energies     occupation 
      1       2.9025      2.00000
      2       3.3274      2.00000
      3       4.0584      2.00000
      4       5.3831      2.00000
      5       6.4515      2.00000
      6      10.5783      0.00000
      7      13.4941      0.00000
      8      18.0360      0.00000
      9      19.7759      0.00000
     10      27.1632      0.00000
     11      31.0543      0.00000
     12      33.6095      0.00000
     13      36.3028      0.00000
     14      37.4105      0.00000
     15      40.3502      0.00000
     16      43.8882      0.00000

 k-point   108 :      -0.3333    0.3333    0.1333
  band No.  band energies     occupation 
      1       3.0490      2.00000
      2       3.3212      2.00000
      3       4.0774      2.00000
      4       5.2440      2.00000
      5       6.4220      2.00000
      6      11.3909      0.00000
      7      12.6877      0.00000
      8      17.5684      0.00000
      9      20.0381      0.00000
     10      27.1352      0.00000
     11      31.2828      0.00000
     12      34.8512      0.00000
     13      35.9148      0.00000
     14      36.3159      0.00000
     15      40.2219      0.00000
     16      44.4719      0.00000

 k-point   109 :      -0.2667    0.3333    0.1333
  band No.  band energies     occupation 
      1       3.2214      2.00000
      2       3.3357      2.00000
      3       3.7906      2.00000
      4       5.3133      2.00000
      5       6.2207      2.00000
      6      10.0135      0.00000
      7      14.5268      0.00000
      8      17.1731      0.00000
      9      20.8051      0.00000
     10      27.3908      0.00000
     11      30.4816      0.00000
     12      34.9069      0.00000
     13      35.5457      0.00000
     14      36.4702      0.00000
     15      41.1426      0.00000
     16      43.4648      0.00000

 k-point   110 :      -0.2000    0.3333    0.1333
  band No.  band energies     occupation 
      1       3.1948      2.00000
      2       3.3614      2.00000
      3       3.5659      2.00000
      4       5.4291      2.00000
      5       5.9089      2.00000
      6       8.7833      0.36685
      7      16.1489      0.00000
      8      17.6205      0.00000
      9      21.7357      0.00000
     10      27.7961      0.00000
     11      29.3241      0.00000
     12      33.9194      0.00000
     13      35.1045      0.00000
     14      37.7792      0.00000
     15      41.2665      0.00000
     16      41.8007      0.00000

 k-point   111 :      -0.4667    0.4000    0.1333
  band No.  band energies     occupation 
      1       2.5827      2.00000
      2       2.7785      2.00000
      3       4.6941      2.00000
      4       6.0021      2.00000
      5       6.4313      2.00000
      6       9.3123     -0.02505
      7      15.7005      0.00000
      8      17.8266      0.00000
      9      19.0752      0.00000
     10      27.6846      0.00000
     11      28.1796      0.00000
     12      33.6442      0.00000
     13      38.0429      0.00000
     14      38.2851      0.00000
     15      41.5300      0.00000
     16      42.4534      0.00000

 k-point   112 :      -0.4000    0.4000    0.1333
  band No.  band energies     occupation 
      1       2.7008      2.00000
      2       2.9889      2.00000
      3       4.5065      2.00000
      4       5.7353      2.00000
      5       6.6132      2.00000
      6      10.8392      0.00000
      7      14.3114      0.00000
      8      16.8902      0.00000
      9      18.6457      0.00000
     10      27.8336      0.00000
     11      29.9082      0.00000
     12      33.0443      0.00000
     13      37.5983      0.00000
     14      38.6306      0.00000
     15      40.2703      0.00000
     16      44.1078      0.00000

 k-point   113 :      -0.3333    0.4000    0.1333
  band No.  band energies     occupation 
      1       2.8527      2.00000
      2       3.2640      2.00000
      3       4.2452      2.00000
      4       5.4663      2.00000
      5       6.6016      2.00000
      6      12.0703      0.00000
      7      13.3964      0.00000
      8      15.9430      0.00000
      9      19.0176      0.00000
     10      27.7502      0.00000
     11      31.6577      0.00000
     12      32.6898      0.00000
     13      36.7902      0.00000
     14      37.3931      0.00000
     15      40.7995      0.00000
     16      44.2191      0.00000

 k-point   114 :      -0.2667    0.4000    0.1333
  band No.  band energies     occupation 
      1       3.0667      2.00000
      2       3.4656      2.00000
      3       3.8793      2.00000
      4       5.3549      2.00000
      5       6.4261      2.00000
      6      11.1639      0.00000
      7      14.9459      0.00000
      8      15.1310      0.00000
      9      19.8369      0.00000
     10      27.6888      0.00000
     11      31.1287      0.00000
     12      34.4863      0.00000
     13      35.7654      0.00000
     14      36.3765      0.00000
     15      41.0723      0.00000
     16      44.8881      0.00000

 k-point   115 :      -0.4000    0.4667    0.1333
  band No.  band energies     occupation 
      1       2.4467      2.00000
      2       2.6718      2.00000
      3       5.1762      2.00000
      4       5.9726      2.00000
      5       6.7653      2.00000
      6      11.1716      0.00000
      7      13.8147      0.00000
      8      17.1374      0.00000
      9      17.9081      0.00000
     10      27.9086      0.00000
     11      28.3302      0.00000
     12      33.7449      0.00000
     13      38.6291      0.00000
     14      39.8126      0.00000
     15      40.6360      0.00000
     16      43.3550      0.00000

 k-point   116 :      -0.3333    0.4667    0.1333
  band No.  band energies     occupation 
      1       2.6307      2.00000
      2       2.9343      2.00000
      3       4.7536      2.00000
      4       5.6936      2.00000
      5       6.7615      2.00000
      6      12.6535      0.00000
      7      12.9049      0.00000
      8      16.0937      0.00000
      9      18.1730      0.00000
     10      28.0309      0.00000
     11      30.1079      0.00000
     12      32.8649      0.00000
     13      38.0217      0.00000
     14      38.3871      0.00000
     15      41.5219      0.00000
     16      42.5449      0.00000

 k-point   117 :      -0.4000    0.4000    0.2000
  band No.  band energies     occupation 
      1       3.0419      2.00000
      2       3.2487      2.00000
      3       3.8822      2.00000
      4       5.5768      2.00000
      5       6.4255      2.00000
      6      10.3208      0.00000
      7      15.1998      0.00000
      8      16.4740      0.00000
      9      19.3426      0.00000
     10      28.8590      0.00000
     11      29.4530      0.00000
     12      33.3285      0.00000
     13      36.9745      0.00000
     14      37.1953      0.00000
     15      40.5973      0.00000
     16      44.1153      0.00000

 k-point   118 :      -0.3333    0.4000    0.2000
  band No.  band energies     occupation 
      1       3.0694      2.00000
      2       3.4424      2.00000
      3       3.8196      2.00000
      4       5.3824      2.00000
      5       6.5997      2.00000
      6      11.6554      0.00000
      7      13.9685      0.00000
      8      16.1252      0.00000
      9      18.6626      0.00000
     10      28.8129      0.00000
     11      30.5914      0.00000
     12      33.7024      0.00000
     13      35.4715      0.00000
     14      37.7823      0.00000
     15      40.1439      0.00000
     16      44.3599      0.00000

 k-point   119 :      -0.3333    0.4667    0.2000
  band No.  band energies     occupation 
      1       2.8572      2.00000
      2       3.1830      2.00000
      3       4.2477      2.00000
      4       5.5093      2.00000
      5       6.7645      2.00000
      6      12.1740      0.00000
      7      14.0059      0.00000
      8      15.8072      0.00000
      9      17.7707      0.00000
     10      29.4821      0.00000
     11      30.2285      0.00000
     12      32.2676      0.00000
     13      36.4735      0.00000
     14      39.4942      0.00000
     15      39.8023      0.00000
     16      42.8315      0.00000

 k-point   120 :      -0.2667    0.4667    0.2000
  band No.  band energies     occupation 
      1       2.9720      2.00000
      2       3.4946      2.00000
      3       3.8852      2.00000
      4       5.3546      2.00000
      5       6.7630      2.00000
      6      12.5818      0.00000
      7      14.2585      0.00000
      8      14.9815      0.00000
      9      17.8565      0.00000
     10      29.6055      0.00000
     11      31.0378      0.00000
     12      32.4037      0.00000
     13      35.2417      0.00000
     14      38.9665      0.00000
     15      40.4166      0.00000
     16      42.4457      0.00000


--------------------------------------------------------------------------------------------------------


 soft charge-density along one line, spin component           1
         0         1         2         3         4         5         6         7         8         9
 total charge-density along one line
 
 pseudopotential strength for first ion, spin component:           1
 -4.094   0.000  -0.000   0.000  -0.000  -4.329   0.000  -0.000
  0.000  -4.094   0.000   0.000  -0.000   0.000  -4.329   0.000
 -0.000   0.000  -4.082   0.000   0.000  -0.000   0.000  -4.317
  0.000   0.000   0.000  -4.094   0.000   0.000   0.000   0.000
 -0.000  -0.000   0.000   0.000  -4.082  -0.000  -0.000   0.000
 -4.329   0.000  -0.000   0.000  -0.000  -4.545   0.000  -0.000
  0.000  -4.329   0.000   0.000  -0.000   0.000  -4.545   0.000
 -0.000   0.000  -4.317   0.000   0.000  -0.000   0.000  -4.534
  0.000   0.000   0.000  -4.329   0.000   0.000   0.000   0.000
 -0.000  -0.000   0.000   0.000  -4.317  -0.000  -0.000   0.000
 -0.000  -0.000  -0.000  -0.000   0.000  -0.000  -0.000  -0.000
 -0.000  -0.000  -0.000  -0.000   0.000  -0.000  -0.000  -0.000
  0.000   0.000  -0.000   0.000  -0.000   0.000   0.000  -0.000
 -0.000  -0.000   0.000   0.000   0.000  -0.000  -0.000   0.000
 -0.000   0.000   0.000   0.000  -0.000  -0.000   0.000  -0.000
  0.000   0.000   0.000   0.000  -0.000   0.000   0.000   0.000
  0.000  -0.000   0.000   0.000   0.000  -0.000  -0.000   0.000
 -0.000   0.000  -0.000   0.000  -0.000  -0.000  -0.000  -0.000
 total augmentation occupancy for first ion, spin component:           1
  4.551  -0.000   0.000  -0.000  -0.000  -2.511   0.000   0.000   0.000  -0.000   0.000   0.000   0.000   0.000   0.000   0.000
 -0.000   4.551  -0.000   0.000  -0.000   0.000  -2.511   0.000   0.000   0.000   0.000   0.000   0.000   0.000   0.000   0.000
 -0.000   0.000   4.371   0.000   0.000  -0.000   0.000  -2.136   0.000  -0.000   0.000  -0.000   0.000   0.000   0.000   0.000
 -0.000   0.000   0.000   4.551   0.000   0.000   0.000  -0.000  -2.511   0.000  -0.000   0.000   0.000   0.000   0.000   0.000
 -0.000   0.000   0.000   0.000   4.371   0.000  -0.000   0.000  -0.000  -2.136   0.000   0.000   0.000   0.000   0.000   0.000
 -2.511   0.000   0.000  -0.000   0.000   2.386  -0.000  -0.000  -0.000   0.000  -0.000  -0.000   0.000   0.000   0.000   0.000
  0.000  -2.511   0.000   0.000   0.000  -0.000   2.386   0.000  -0.000   0.000   0.000   0.000   0.000   0.000   0.000   0.000
  0.000   0.000  -2.136  -0.000   0.000  -0.000  -0.000   1.869  -0.000   0.000  -0.000   0.000   0.000   0.000   0.000   0.000
  0.000   0.000   0.000  -2.511   0.000  -0.000   0.000   0.000   2.386   0.000   0.000   0.000   0.000   0.000   0.000   0.000
 -0.000  -0.000   0.000   0.000  -2.136   0.000  -0.000   0.000   0.000   1.869   0.000   0.000   0.000   0.000   0.000   0.000
  0.000   0.000   0.000  -0.000   0.000  -0.000   0.000  -0.000   0.000   0.000   2.432  -0.612   0.000   0.000   0.000   0.000
  0.000  -0.000  -0.000  -0.000   0.000  -0.000   0.000   0.000  -0.000   0.000  -0.612   0.199   0.000   0.000   0.000   0.000
  0.000   0.000   0.000   0.000   0.000   0.000   0.000   0.000   0.000   0.000   0.000   0.000   0.164   0.000   0.000  -0.006
  0.000   0.000   0.000   0.000   0.000   0.000   0.000   0.000   0.000   0.000   0.000   0.000  -0.000   0.164   0.000   0.000
  0.000   0.000   0.000   0.000   0.000   0.000   0.000   0.000   0.000   0.000   0.000   0.000   0.000   0.000   0.164   0.000
  0.000   0.000   0.000   0.000   0.000   0.000   0.000   0.000   0.000   0.000   0.000   0.000  -0.006   0.000  -0.000   0.000
  0.000   0.000   0.000   0.000   0.000   0.000   0.000   0.000   0.000   0.000   0.000   0.000   0.000  -0.006   0.000  -0.000
  0.000   0.000   0.000   0.000   0.000   0.000   0.000   0.000   0.000   0.000   0.000   0.000  -0.000  -0.000  -0.006  -0.000


------------------------ aborting loop because EDIFF is reached ----------------------------------------


 


 total charge     
 
# of ion       s       p       d       tot
------------------------------------------
    1        0.520   0.309   8.760   9.588
 
    CHARGE:  cpu time    0.0663: real time    0.0663
    FORLOC:  cpu time    0.0012: real time    0.0012
    FORNL :  cpu time    0.3499: real time    0.3502
    STRESS:  cpu time    1.1273: real time    1.1296
    FORCOR:  cpu time    0.0023: real time    0.0024
    FORHAR:  cpu time    0.0010: real time    0.0011
    MIXING:  cpu time    0.0008: real time    0.0008
    OFIELD:  cpu time    0.0005: real time    0.0012

  FORCE on cell =-STRESS in cart. coord.  units (eV):
  Direction    XX          YY          ZZ          XY          YZ          ZX
  --------------------------------------------------------------------------------------
  Alpha Z    64.19470    64.19470    64.19470
  Ewald    -319.18778  -319.18778  -319.18778     0.00000    -0.00000    -0.00000
  Hartree    40.38039    40.38039    40.38039     0.00000     0.00000     0.00000
  E(xc)     -49.51804   -49.51804   -49.51804     0.00000     0.00000     0.00000
  Local      43.85394    43.85394    43.85394    -0.00001    -0.00001    -0.00001
  n-local    -1.61825     2.19982    -3.47215     3.25854    -3.32563     2.57123
  augment    67.83731    67.83731    67.83731     0.00001     0.00001     0.00001
  Kinetic   152.90100   152.19672   154.59859     0.53696     1.37717    -1.74012
  Fock        0.00000     0.00000     0.00000     0.00000     0.00000     0.00000
  -------------------------------------------------------------------------------------
  Total      -0.17090    -0.17090    -0.17090     0.00000    -0.00000     0.00000
  in kB     -15.09048   -15.09048   -15.09048     0.00000    -0.00000     0.00000
  external pressure =      -15.09 kB  Pullay stress =        0.00 kB


 VOLUME and BASIS-vectors are now :
 -----------------------------------------------------------------------------
  energy-cutoff  :      600.00
  volume of cell :       18.14
      direct lattice vectors                 reciprocal lattice vectors
     0.000000000  2.085644245  2.085644245    -0.239734078  0.239734078  0.239734078
     2.085644245  0.000000000  2.085644245     0.239734078 -0.239734078  0.239734078
     2.085644245  2.085644245  0.000000000     0.239734078  0.239734078 -0.239734078

  length of vectors
     2.949546378  2.949546378  2.949546378     0.415231603  0.415231603  0.415231603


 FORCES acting on ions
    electron-ion (+dipol)            ewald-force                    non-local-force                 convergence-correction
 -----------------------------------------------------------------------------------------------
   -.892E-14 -.687E-14 -.127E-13   -.259E-15 0.167E-14 -.129E-14   0.207E-24 0.207E-24 0.207E-24   -.339E-15 0.284E-14 0.470E-15
 -----------------------------------------------------------------------------------------------
   -.892E-14 -.687E-14 -.127E-13   -.259E-15 0.167E-14 -.129E-14   0.207E-24 0.207E-24 0.207E-24   -.339E-15 0.284E-14 0.470E-15
 
 
 POSITION                                       TOTAL-FORCE (eV/Angst)
 -----------------------------------------------------------------------------------
      0.00000      0.00000      0.00000        -0.000000      0.000000      0.000000
 -----------------------------------------------------------------------------------
    total drift:                               -0.000000     -0.000000     -0.000000


--------------------------------------------------------------------------------------------------------



  FREE ENERGIE OF THE ION-ELECTRON SYSTEM (eV)
  ---------------------------------------------------
  free  energy   TOTEN  =        -3.21967785 eV

  energy  without entropy=       -3.21967785  energy(sigma->0) =       -3.21967785
 


--------------------------------------------------------------------------------------------------------


    POTLOK:  cpu time    0.1533: real time    0.1533


--------------------------------------------------------------------------------------------------------


     LOOP+:  cpu time    5.8356: real time    5.9559
    4ORBIT:  cpu time    0.0000: real time    0.0000
 


 total charge     
 
# of ion       s       p       d       tot
------------------------------------------
    1        0.520   0.309   8.760   9.588
 
 BZINTS: Fermi energy:  8.508013; 11.000000 electrons
         Band energy:  49.532078;  BLOECHL correction: -0.038066

 total amount of memory used by VASP MPI-rank0    32368. kBytes
=======================================================================

   base      :      30000. kBytes
   nonl-proj :       1383. kBytes
   fftplans  :        388. kBytes
   grid      :        183. kBytes
   one-center:         15. kBytes
   wavefun   :        399. kBytes
 
  
  
 General timing and accounting informations for this job:
 ========================================================
  
                  Total CPU time used (sec):       11.774
                            User time (sec):        7.423
                          System time (sec):        4.351
                         Elapsed time (sec):       14.349
  
                   Maximum memory used (kb):      231960.
                   Average memory used (kb):           0.
  
                          Minor page faults:        84672
                          Major page faults:            0
                 Voluntary context switches:         3688
