PROCAR lm decomposed
# of k-points:  120         # of bands:   16         # of ions:    1

 k-point     1 :    0.00000000 0.00000000 0.00000000     weight = 0.00029630

band     1 # energy   -0.74734988 # occ.  2.00000000
 
ion      s     py     pz     px    dxy    dyz    dz2    dxz  x2-y2    tot
    1  0.573  0.000  0.000  0.000  0.000  0.000  0.000  0.000  0.000  0.573
 
band     2 # energy    4.09324689 # occ.  2.00000000
 
ion      s     py     pz     px    dxy    dyz    dz2    dxz  x2-y2    tot
    1  0.000  0.000  0.000  0.000  0.636  0.137  0.000  0.153  0.000  0.926
 
band     3 # energy    4.09324689 # occ.  2.00000000
 
ion      s     py     pz     px    dxy    dyz    dz2    dxz  x2-y2    tot
    1  0.000  0.000  0.000  0.000  0.000  0.470  0.000  0.456  0.000  0.926
 
band     4 # energy    4.09324691 # occ.  2.00000000
 
ion      s     py     pz     px    dxy    dyz    dz2    dxz  x2-y2    tot
    1  0.000  0.000  0.000  0.000  0.290  0.319  0.000  0.318  0.000  0.926
 
band     5 # energy    5.44823360 # occ.  2.00000000
 
ion      s     py     pz     px    dxy    dyz    dz2    dxz  x2-y2    tot
    1  0.000  0.000  0.000  0.000  0.000  0.000  0.961  0.000  0.000  0.961
 
band     6 # energy    5.44823360 # occ.  2.00000000
 
ion      s     py     pz     px    dxy    dyz    dz2    dxz  x2-y2    tot
    1  0.000  0.000  0.000  0.000  0.000  0.000  0.000  0.000  0.961  0.961
 
band     7 # energy   23.05190563 # occ.  0.00000000
 
ion      s     py     pz     px    dxy    dyz    dz2    dxz  x2-y2    tot
    1  0.000  0.000  0.000  0.000  0.000  0.000  0.000  0.000  0.000  0.000
 
band     8 # energy   26.69019625 # occ.  0.00000000
 
ion      s     py     pz     px    dxy    dyz    dz2    dxz  x2-y2    tot
    1  0.000  0.113  0.000  0.111  0.000  0.000  0.000  0.000  0.000  0.225
 
band     9 # energy   26.69019625 # occ.  0.00000000
 
ion      s     py     pz     px    dxy    dyz    dz2    dxz  x2-y2    tot
    1  0.000  0.035  0.152  0.037  0.000  0.000  0.000  0.000  0.000  0.225
 
band    10 # energy   26.69019627 # occ.  0.00000000
 
ion      s     py     pz     px    dxy    dyz    dz2    dxz  x2-y2    tot
    1  0.000  0.076  0.072  0.076  0.000  0.000  0.000  0.000  0.000  0.225
 
band    11 # energy   31.40074987 # occ.  0.00000000
 
ion      s     py     pz     px    dxy    dyz    dz2    dxz  x2-y2    tot
    1  0.076  0.000  0.000  0.000  0.000  0.000  0.000  0.000  0.000  0.076
 
band    12 # energy   35.38610537 # occ.  0.00000000
 
ion      s     py     pz     px    dxy    dyz    dz2    dxz  x2-y2    tot
    1  0.000  0.000  0.000  0.000  0.531  0.076  0.000  0.112  0.000  0.720
 
band    13 # energy   35.38610537 # occ.  0.00000000
 
ion      s     py     pz     px    dxy    dyz    dz2    dxz  x2-y2    tot
    1  0.000  0.000  0.000  0.000  0.002  0.372  0.000  0.346  0.000  0.720
 
band    14 # energy   35.38610539 # occ.  0.00000000
 
ion      s     py     pz     px    dxy    dyz    dz2    dxz  x2-y2    tot
    1  0.000  0.000  0.000  0.000  0.187  0.272  0.000  0.261  0.000  0.720
 
band    15 # energy   36.72769507 # occ.  0.00000000
 
ion      s     py     pz     px    dxy    dyz    dz2    dxz  x2-y2    tot
    1  0.000  0.159  0.373  0.166  0.000  0.000  0.000  0.000  0.000  0.698
 
band    16 # energy   36.72769509 # occ.  0.00000000
 
ion      s     py     pz     px    dxy    dyz    dz2    dxz  x2-y2    tot
    1  0.000  0.367  0.021  0.310  0.000  0.000  0.000  0.000  0.000  0.698
 

 k-point     2 :    0.06666667 0.00000000 0.00000000     weight = 0.00237037

band     1 # energy   -0.60087395 # occ.  2.00000000
 
ion      s     py     pz     px    dxy    dyz    dz2    dxz  x2-y2    tot
    1  0.567  0.002  0.002  0.002  0.000  0.000  0.000  0.000  0.000  0.573
 
band     2 # energy    4.04917787 # occ.  2.00000000
 
ion      s     py     pz     px    dxy    dyz    dz2    dxz  x2-y2    tot
    1  0.000  0.000  0.000  0.000  0.307  0.307  0.000  0.307  0.000  0.921
 
band     3 # energy    4.14143016 # occ.  2.00000000
 
ion      s     py     pz     px    dxy    dyz    dz2    dxz  x2-y2    tot
    1  0.000  0.000  0.000  0.000  0.472  0.000  0.001  0.453  0.000  0.926
 
band     4 # energy    4.14143018 # occ.  2.00000000
 
ion      s     py     pz     px    dxy    dyz    dz2    dxz  x2-y2    tot
    1  0.000  0.000  0.000  0.000  0.145  0.616  0.000  0.164  0.001  0.926
 
band     5 # energy    5.42762252 # occ.  2.00000000
 
ion      s     py     pz     px    dxy    dyz    dz2    dxz  x2-y2    tot
    1  0.000  0.000  0.000  0.000  0.001  0.000  0.840  0.001  0.118  0.960
 
band     6 # energy    5.42762253 # occ.  2.00000000
 
ion      s     py     pz     px    dxy    dyz    dz2    dxz  x2-y2    tot
    1  0.000  0.000  0.000  0.000  0.000  0.001  0.118  0.000  0.840  0.960
 
band     7 # energy   23.20431263 # occ.  0.00000000
 
ion      s     py     pz     px    dxy    dyz    dz2    dxz  x2-y2    tot
    1  0.000  0.001  0.001  0.001  0.006  0.006  0.000  0.006  0.000  0.020
 
band     8 # energy   25.70681858 # occ.  0.00000000
 
ion      s     py     pz     px    dxy    dyz    dz2    dxz  x2-y2    tot
    1  0.020  0.072  0.072  0.072  0.006  0.006  0.000  0.006  0.000  0.254
 
band     9 # energy   26.84522141 # occ.  0.00000000
 
ion      s     py     pz     px    dxy    dyz    dz2    dxz  x2-y2    tot
    1  0.000  0.114  0.121  0.000  0.004  0.000  0.005  0.003  0.001  0.247
 
band    10 # energy   26.84522142 # occ.  0.00000000
 
ion      s     py     pz     px    dxy    dyz    dz2    dxz  x2-y2    tot
    1  0.000  0.043  0.036  0.156  0.001  0.005  0.001  0.001  0.005  0.247
 
band    11 # energy   32.05985302 # occ.  0.00000000
 
ion      s     py     pz     px    dxy    dyz    dz2    dxz  x2-y2    tot
    1  0.035  0.042  0.042  0.042  0.017  0.017  0.000  0.017  0.000  0.211
 
band    12 # energy   33.96669401 # occ.  0.00000000
 
ion      s     py     pz     px    dxy    dyz    dz2    dxz  x2-y2    tot
    1  0.040  0.056  0.056  0.056  0.084  0.084  0.000  0.084  0.000  0.460
 
band    13 # energy   34.55397823 # occ.  0.00000000
 
ion      s     py     pz     px    dxy    dyz    dz2    dxz  x2-y2    tot
    1  0.000  0.031  0.033  0.127  0.076  0.295  0.002  0.071  0.007  0.643
 
band    14 # energy   34.55397829 # occ.  0.00000000
 
ion      s     py     pz     px    dxy    dyz    dz2    dxz  x2-y2    tot
    1  0.000  0.097  0.095  0.000  0.219  0.000  0.007  0.223  0.002  0.643
 
band    15 # energy   37.12014905 # occ.  0.00000000
 
ion      s     py     pz     px    dxy    dyz    dz2    dxz  x2-y2    tot
    1  0.000  0.234  0.238  0.000  0.126  0.000  0.022  0.124  0.007  0.751
 
band    16 # energy   37.12014911 # occ.  0.00000000
 
ion      s     py     pz     px    dxy    dyz    dz2    dxz  x2-y2    tot
    1  0.000  0.081  0.076  0.314  0.041  0.167  0.007  0.043  0.022  0.751
 

 k-point     3 :    0.13333333 0.00000000 0.00000000     weight = 0.00237037

band     1 # energy   -0.17827126 # occ.  2.00000000
 
ion      s     py     pz     px    dxy    dyz    dz2    dxz  x2-y2    tot
    1  0.548  0.007  0.007  0.007  0.002  0.002  0.000  0.002  0.000  0.574
 
band     2 # energy    3.94779664 # occ.  2.00000000
 
ion      s     py     pz     px    dxy    dyz    dz2    dxz  x2-y2    tot
    1  0.002  0.002  0.002  0.002  0.300  0.300  0.000  0.300  0.000  0.908
 
band     3 # energy    4.25766419 # occ.  2.00000000
 
ion      s     py     pz     px    dxy    dyz    dz2    dxz  x2-y2    tot
    1  0.000  0.000  0.000  0.000  0.472  0.001  0.020  0.427  0.006  0.927
 
band     4 # energy    4.25766419 # occ.  2.00000000
 
ion      s     py     pz     px    dxy    dyz    dz2    dxz  x2-y2    tot
    1  0.000  0.000  0.000  0.001  0.128  0.599  0.006  0.173  0.020  0.927
 
band     5 # energy    5.39677826 # occ.  2.00000000
 
ion      s     py     pz     px    dxy    dyz    dz2    dxz  x2-y2    tot
    1  0.000  0.000  0.000  0.000  0.014  0.000  0.732  0.013  0.197  0.956
 
band     6 # energy    5.39677828 # occ.  2.00000000
 
ion      s     py     pz     px    dxy    dyz    dz2    dxz  x2-y2    tot
    1  0.000  0.000  0.000  0.000  0.004  0.018  0.197  0.005  0.732  0.956
 
band     7 # energy   23.20256566 # occ.  0.00000000
 
ion      s     py     pz     px    dxy    dyz    dz2    dxz  x2-y2    tot
    1  0.024  0.045  0.045  0.045  0.038  0.038  0.000  0.038  0.000  0.274
 
band     8 # energy   24.10403643 # occ.  0.00000000
 
ion      s     py     pz     px    dxy    dyz    dz2    dxz  x2-y2    tot
    1  0.029  0.034  0.034  0.034  0.000  0.000  0.000  0.000  0.000  0.131
 
band     9 # energy   27.25685723 # occ.  0.00000000
 
ion      s     py     pz     px    dxy    dyz    dz2    dxz  x2-y2    tot
    1  0.000  0.114  0.155  0.003  0.018  0.000  0.017  0.013  0.003  0.324
 
band    10 # energy   27.25685724 # occ.  0.00000000
 
ion      s     py     pz     px    dxy    dyz    dz2    dxz  x2-y2    tot
    1  0.000  0.067  0.026  0.178  0.003  0.021  0.003  0.008  0.017  0.324
 
band    11 # energy   30.93361700 # occ.  0.00000000
 
ion      s     py     pz     px    dxy    dyz    dz2    dxz  x2-y2    tot
    1  0.005  0.104  0.104  0.104  0.034  0.034  0.000  0.034  0.000  0.419
 
band    12 # energy   33.03265304 # occ.  0.00000000
 
ion      s     py     pz     px    dxy    dyz    dz2    dxz  x2-y2    tot
    1  0.000  0.041  0.042  0.165  0.039  0.155  0.011  0.038  0.033  0.525
 
band    13 # energy   33.03265314 # occ.  0.00000000
 
ion      s     py     pz     px    dxy    dyz    dz2    dxz  x2-y2    tot
    1  0.000  0.124  0.123  0.000  0.116  0.000  0.033  0.117  0.011  0.525
 
band    14 # energy   35.10734740 # occ.  0.00000000
 
ion      s     py     pz     px    dxy    dyz    dz2    dxz  x2-y2    tot
    1  0.102  0.002  0.002  0.002  0.001  0.001  0.000  0.001  0.000  0.112
 
band    15 # energy   37.58159273 # occ.  0.00000000
 
ion      s     py     pz     px    dxy    dyz    dz2    dxz  x2-y2    tot
    1  0.000  0.164  0.166  0.000  0.193  0.000  0.053  0.190  0.017  0.783
 
band    16 # energy   37.58159285 # occ.  0.00000000
 
ion      s     py     pz     px    dxy    dyz    dz2    dxz  x2-y2    tot
    1  0.000  0.056  0.054  0.220  0.063  0.255  0.017  0.065  0.053  0.783
 

 k-point     4 :    0.20000000 0.00000000 0.00000000     weight = 0.00237037

band     1 # energy    0.45362153 # occ.  2.00000000
 
ion      s     py     pz     px    dxy    dyz    dz2    dxz  x2-y2    tot
    1  0.508  0.013  0.013  0.013  0.012  0.012  0.000  0.012  0.000  0.584
 
band     2 # energy    3.88964091 # occ.  2.00000000
 
ion      s     py     pz     px    dxy    dyz    dz2    dxz  x2-y2    tot
    1  0.013  0.007  0.007  0.007  0.282  0.282  0.000  0.282  0.000  0.881
 
band     3 # energy    4.35057008 # occ.  2.00000000
 
ion      s     py     pz     px    dxy    dyz    dz2    dxz  x2-y2    tot
    1  0.000  0.000  0.000  0.001  0.146  0.523  0.039  0.116  0.102  0.928
 
band     4 # energy    4.35057009 # occ.  2.00000000
 
ion      s     py     pz     px    dxy    dyz    dz2    dxz  x2-y2    tot
    1  0.000  0.001  0.001  0.000  0.378  0.001  0.102  0.407  0.039  0.928
 
band     5 # energy    5.45063998 # occ.  2.00000000
 
ion      s     py     pz     px    dxy    dyz    dz2    dxz  x2-y2    tot
    1  0.000  0.000  0.000  0.000  0.074  0.000  0.619  0.071  0.189  0.953
 
band     6 # energy    5.45064003 # occ.  2.00000000
 
ion      s     py     pz     px    dxy    dyz    dz2    dxz  x2-y2    tot
    1  0.000  0.000  0.000  0.000  0.022  0.096  0.189  0.026  0.619  0.953
 
band     7 # energy   21.12255400 # occ.  0.00000000
 
ion      s     py     pz     px    dxy    dyz    dz2    dxz  x2-y2    tot
    1  0.088  0.092  0.092  0.092  0.048  0.048  0.000  0.048  0.000  0.508
 
band     8 # energy   24.11590341 # occ.  0.00000000
 
ion      s     py     pz     px    dxy    dyz    dz2    dxz  x2-y2    tot
    1  0.004  0.000  0.000  0.000  0.018  0.018  0.000  0.018  0.000  0.058
 
band     9 # energy   27.69613990 # occ.  0.00000000
 
ion      s     py     pz     px    dxy    dyz    dz2    dxz  x2-y2    tot
    1  0.000  0.059  0.065  0.248  0.014  0.055  0.007  0.013  0.020  0.482
 
band    10 # energy   27.69613993 # occ.  0.00000000
 
ion      s     py     pz     px    dxy    dyz    dz2    dxz  x2-y2    tot
    1  0.000  0.189  0.183  0.000  0.041  0.000  0.020  0.042  0.007  0.482
 
band    11 # energy   29.75363107 # occ.  0.00000000
 
ion      s     py     pz     px    dxy    dyz    dz2    dxz  x2-y2    tot
    1  0.024  0.084  0.084  0.084  0.004  0.004  0.000  0.004  0.000  0.289
 
band    12 # energy   31.56705103 # occ.  0.00000000
 
ion      s     py     pz     px    dxy    dyz    dz2    dxz  x2-y2    tot
    1  0.000  0.028  0.029  0.115  0.014  0.056  0.025  0.014  0.075  0.357
 
band    13 # energy   31.56705113 # occ.  0.00000000
 
ion      s     py     pz     px    dxy    dyz    dz2    dxz  x2-y2    tot
    1  0.000  0.087  0.086  0.000  0.042  0.000  0.075  0.042  0.025  0.357
 
band    14 # energy   37.32173831 # occ.  0.00000000
 
ion      s     py     pz     px    dxy    dyz    dz2    dxz  x2-y2    tot
    1  0.173  0.000  0.000  0.000  0.012  0.012  0.000  0.012  0.000  0.208
 
band    15 # energy   37.95740758 # occ.  0.00000000
 
ion      s     py     pz     px    dxy    dyz    dz2    dxz  x2-y2    tot
    1  0.000  0.133  0.135  0.000  0.205  0.000  0.069  0.203  0.022  0.768
 
band    16 # energy   37.95740773 # occ.  0.00000000
 
ion      s     py     pz     px    dxy    dyz    dz2    dxz  x2-y2    tot
    1  0.000  0.045  0.044  0.178  0.067  0.273  0.022  0.069  0.069  0.768
 

 k-point     5 :    0.26666667 0.00000000 0.00000000     weight = 0.00237037

band     1 # energy    1.11997994 # occ.  2.00000000
 
ion      s     py     pz     px    dxy    dyz    dz2    dxz  x2-y2    tot
    1  0.425  0.015  0.015  0.015  0.052  0.052  0.000  0.052  0.000  0.625
 
band     2 # energy    4.08437976 # occ.  2.00000000
 
ion      s     py     pz     px    dxy    dyz    dz2    dxz  x2-y2    tot
    1  0.056  0.022  0.022  0.022  0.232  0.232  0.000  0.232  0.000  0.818
 
band     3 # energy    4.33091508 # occ.  2.00000000
 
ion      s     py     pz     px    dxy    dyz    dz2    dxz  x2-y2    tot
    1  0.000  0.000  0.000  0.001  0.105  0.399  0.086  0.095  0.240  0.925
 
band     4 # energy    4.33091511 # occ.  2.00000000
 
ion      s     py     pz     px    dxy    dyz    dz2    dxz  x2-y2    tot
    1  0.000  0.000  0.000  0.000  0.294  0.000  0.240  0.305  0.086  0.925
 
band     5 # energy    5.67219269 # occ.  2.00000000
 
ion      s     py     pz     px    dxy    dyz    dz2    dxz  x2-y2    tot
    1  0.000  0.001  0.001  0.000  0.170  0.000  0.471  0.165  0.148  0.955
 
band     6 # energy    5.67219276 # occ.  2.00000000
 
ion      s     py     pz     px    dxy    dyz    dz2    dxz  x2-y2    tot
    1  0.000  0.000  0.000  0.001  0.053  0.224  0.148  0.058  0.471  0.955
 
band     7 # energy   18.57207938 # occ.  0.00000000
 
ion      s     py     pz     px    dxy    dyz    dz2    dxz  x2-y2    tot
    1  0.143  0.098  0.098  0.098  0.056  0.056  0.000  0.056  0.000  0.605
 
band     8 # energy   23.87826748 # occ.  0.00000000
 
ion      s     py     pz     px    dxy    dyz    dz2    dxz  x2-y2    tot
    1  0.001  0.004  0.004  0.004  0.019  0.019  0.000  0.019  0.000  0.070
 
band     9 # energy   27.54864603 # occ.  0.00000000
 
ion      s     py     pz     px    dxy    dyz    dz2    dxz  x2-y2    tot
    1  0.000  0.085  0.087  0.344  0.020  0.080  0.002  0.020  0.005  0.643
 
band    10 # energy   27.54864614 # occ.  0.00000000
 
ion      s     py     pz     px    dxy    dyz    dz2    dxz  x2-y2    tot
    1  0.000  0.259  0.257  0.000  0.060  0.000  0.005  0.060  0.002  0.643
 
band    11 # energy   29.87981099 # occ.  0.00000000
 
ion      s     py     pz     px    dxy    dyz    dz2    dxz  x2-y2    tot
    1  0.043  0.056  0.056  0.056  0.005  0.005  0.000  0.005  0.000  0.226
 
band    12 # energy   30.93155883 # occ.  0.00000000
 
ion      s     py     pz     px    dxy    dyz    dz2    dxz  x2-y2    tot
    1  0.000  0.005  0.005  0.020  0.000  0.000  0.051  0.000  0.141  0.222
 
band    13 # energy   30.93155886 # occ.  0.00000000
 
ion      s     py     pz     px    dxy    dyz    dz2    dxz  x2-y2    tot
    1  0.000  0.015  0.015  0.000  0.000  0.000  0.141  0.000  0.051  0.222
 
band    14 # energy   38.32085687 # occ.  0.00000000
 
ion      s     py     pz     px    dxy    dyz    dz2    dxz  x2-y2    tot
    1  0.000  0.124  0.126  0.000  0.185  0.000  0.065  0.183  0.021  0.704
 
band    15 # energy   38.32085700 # occ.  0.00000000
 
ion      s     py     pz     px    dxy    dyz    dz2    dxz  x2-y2    tot
    1  0.000  0.042  0.041  0.166  0.060  0.245  0.021  0.062  0.065  0.704
 
band    16 # energy   39.01593553 # occ.  0.00000000
 
ion      s     py     pz     px    dxy    dyz    dz2    dxz  x2-y2    tot
    1  0.294  0.000  0.000  0.000  0.063  0.063  0.000  0.063  0.000  0.484
 

 k-point     6 :    0.33333333 0.00000000 0.00000000     weight = 0.00237037

band     1 # energy    1.54560887 # occ.  2.00000000
 
ion      s     py     pz     px    dxy    dyz    dz2    dxz  x2-y2    tot
    1  0.300  0.008  0.008  0.008  0.125  0.125  0.000  0.125  0.000  0.702
 
band     2 # energy    4.23270546 # occ.  2.00000000
 
ion      s     py     pz     px    dxy    dyz    dz2    dxz  x2-y2    tot
    1  0.000  0.000  0.000  0.000  0.082  0.313  0.118  0.075  0.333  0.921
 
band     3 # energy    4.23270549 # occ.  2.00000000
 
ion      s     py     pz     px    dxy    dyz    dz2    dxz  x2-y2    tot
    1  0.000  0.000  0.000  0.000  0.231  0.000  0.333  0.238  0.118  0.921
 
band     4 # energy    4.82248625 # occ.  2.00000000
 
ion      s     py     pz     px    dxy    dyz    dz2    dxz  x2-y2    tot
    1  0.127  0.049  0.049  0.049  0.146  0.146  0.000  0.146  0.000  0.714
 
band     5 # energy    6.00083735 # occ.  2.00000000
 
ion      s     py     pz     px    dxy    dyz    dz2    dxz  x2-y2    tot
    1  0.000  0.001  0.001  0.000  0.240  0.000  0.371  0.233  0.117  0.963
 
band     6 # energy    6.00083743 # occ.  2.00000000
 
ion      s     py     pz     px    dxy    dyz    dz2    dxz  x2-y2    tot
    1  0.000  0.000  0.000  0.001  0.076  0.315  0.117  0.082  0.371  0.963
 
band     7 # energy   15.97086970 # occ.  0.00000000
 
ion      s     py     pz     px    dxy    dyz    dz2    dxz  x2-y2    tot
    1  0.208  0.088  0.088  0.088  0.066  0.066  0.000  0.066  0.000  0.670
 
band     8 # energy   23.30957208 # occ.  0.00000000
 
ion      s     py     pz     px    dxy    dyz    dz2    dxz  x2-y2    tot
    1  0.000  0.007  0.007  0.007  0.010  0.010  0.000  0.010  0.000  0.051
 
band     9 # energy   26.63894822 # occ.  0.00000000
 
ion      s     py     pz     px    dxy    dyz    dz2    dxz  x2-y2    tot
    1  0.000  0.089  0.090  0.359  0.013  0.050  0.000  0.013  0.000  0.614
 
band    10 # energy   26.63894840 # occ.  0.00000000
 
ion      s     py     pz     px    dxy    dyz    dz2    dxz  x2-y2    tot
    1  0.000  0.270  0.269  0.000  0.038  0.000  0.000  0.038  0.000  0.614
 
band    11 # energy   31.01748370 # occ.  0.00000000
 
ion      s     py     pz     px    dxy    dyz    dz2    dxz  x2-y2    tot
    1  0.070  0.034  0.034  0.034  0.032  0.032  0.000  0.032  0.000  0.269
 
band    12 # energy   31.33550879 # occ.  0.00000000
 
ion      s     py     pz     px    dxy    dyz    dz2    dxz  x2-y2    tot
    1  0.000  0.000  0.000  0.000  0.020  0.000  0.212  0.019  0.064  0.315
 
band    13 # energy   31.33550882 # occ.  0.00000000
 
ion      s     py     pz     px    dxy    dyz    dz2    dxz  x2-y2    tot
    1  0.000  0.000  0.000  0.000  0.006  0.026  0.064  0.007  0.212  0.315
 
band    14 # energy   38.70955535 # occ.  0.00000000
 
ion      s     py     pz     px    dxy    dyz    dz2    dxz  x2-y2    tot
    1  0.000  0.129  0.131  0.000  0.135  0.000  0.046  0.134  0.015  0.591
 
band    15 # energy   38.70955544 # occ.  0.00000000
 
ion      s     py     pz     px    dxy    dyz    dz2    dxz  x2-y2    tot
    1  0.000  0.044  0.043  0.174  0.044  0.180  0.015  0.046  0.046  0.591
 
band    16 # energy   39.89458138 # occ.  0.00000000
 
ion      s     py     pz     px    dxy    dyz    dz2    dxz  x2-y2    tot
    1  0.312  0.004  0.004  0.004  0.086  0.086  0.000  0.086  0.000  0.581
 

 k-point     7 :    0.40000000 0.00000000 0.00000000     weight = 0.00237037

band     1 # energy    1.68298172 # occ.  2.00000000
 
ion      s     py     pz     px    dxy    dyz    dz2    dxz  x2-y2    tot
    1  0.213  0.003  0.003  0.003  0.179  0.179  0.000  0.179  0.000  0.758
 
band     2 # energy    4.13123028 # occ.  2.00000000
 
ion      s     py     pz     px    dxy    dyz    dz2    dxz  x2-y2    tot
    1  0.000  0.000  0.000  0.000  0.070  0.269  0.134  0.064  0.379  0.918
 
band     3 # energy    4.13123031 # occ.  2.00000000
 
ion      s     py     pz     px    dxy    dyz    dz2    dxz  x2-y2    tot
    1  0.000  0.000  0.000  0.000  0.199  0.000  0.379  0.205  0.134  0.918
 
band     4 # energy    6.11187133 # occ.  2.00000000
 
ion      s     py     pz     px    dxy    dyz    dz2    dxz  x2-y2    tot
    1  0.137  0.086  0.086  0.086  0.073  0.073  0.000  0.073  0.000  0.615
 
band     5 # energy    6.31140171 # occ.  2.00000000
 
ion      s     py     pz     px    dxy    dyz    dz2    dxz  x2-y2    tot
    1  0.000  0.000  0.000  0.000  0.277  0.000  0.322  0.270  0.102  0.972
 
band     6 # energy    6.31140181 # occ.  2.00000000
 
ion      s     py     pz     px    dxy    dyz    dz2    dxz  x2-y2    tot
    1  0.000  0.000  0.000  0.001  0.088  0.365  0.102  0.095  0.322  0.972
 
band     7 # energy   13.51268206 # occ.  0.00000000
 
ion      s     py     pz     px    dxy    dyz    dz2    dxz  x2-y2    tot
    1  0.292  0.064  0.064  0.064  0.082  0.082  0.000  0.082  0.000  0.729
 
band     8 # energy   22.80240609 # occ.  0.00000000
 
ion      s     py     pz     px    dxy    dyz    dz2    dxz  x2-y2    tot
    1  0.000  0.007  0.007  0.007  0.003  0.003  0.000  0.003  0.000  0.031
 
band     9 # energy   25.71685738 # occ.  0.00000000
 
ion      s     py     pz     px    dxy    dyz    dz2    dxz  x2-y2    tot
    1  0.000  0.087  0.088  0.350  0.005  0.019  0.000  0.005  0.000  0.554
 
band    10 # energy   25.71685758 # occ.  0.00000000
 
ion      s     py     pz     px    dxy    dyz    dz2    dxz  x2-y2    tot
    1  0.000  0.263  0.263  0.000  0.014  0.000  0.000  0.014  0.000  0.554
 
band    11 # energy   31.98480121 # occ.  0.00000000
 
ion      s     py     pz     px    dxy    dyz    dz2    dxz  x2-y2    tot
    1  0.000  0.001  0.001  0.000  0.056  0.000  0.266  0.055  0.083  0.462
 
band    12 # energy   31.98480128 # occ.  0.00000000
 
ion      s     py     pz     px    dxy    dyz    dz2    dxz  x2-y2    tot
    1  0.000  0.000  0.000  0.001  0.018  0.074  0.083  0.019  0.266  0.462
 
band    13 # energy   32.44244535 # occ.  0.00000000
 
ion      s     py     pz     px    dxy    dyz    dz2    dxz  x2-y2    tot
    1  0.115  0.016  0.016  0.016  0.074  0.074  0.000  0.074  0.000  0.386
 
band    14 # energy   39.10132373 # occ.  0.00000000
 
ion      s     py     pz     px    dxy    dyz    dz2    dxz  x2-y2    tot
    1  0.000  0.143  0.146  0.000  0.067  0.000  0.021  0.065  0.007  0.448
 
band    15 # energy   39.10132377 # occ.  0.00000000
 
ion      s     py     pz     px    dxy    dyz    dz2    dxz  x2-y2    tot
    1  0.000  0.050  0.046  0.193  0.021  0.088  0.007  0.023  0.021  0.448
 
band    16 # energy   40.39119273 # occ.  0.00000000
 
ion      s     py     pz     px    dxy    dyz    dz2    dxz  x2-y2    tot
    1  0.206  0.016  0.016  0.016  0.059  0.059  0.000  0.059  0.000  0.432
 

 k-point     8 :    0.46666667 0.00000000 0.00000000     weight = 0.00237037

band     1 # energy    1.70219894 # occ.  2.00000000
 
ion      s     py     pz     px    dxy    dyz    dz2    dxz  x2-y2    tot
    1  0.178  0.000  0.000  0.000  0.200  0.200  0.000  0.200  0.000  0.779
 
band     2 # energy    4.07116486 # occ.  2.00000000
 
ion      s     py     pz     px    dxy    dyz    dz2    dxz  x2-y2    tot
    1  0.000  0.000  0.000  0.000  0.066  0.252  0.141  0.060  0.398  0.916
 
band     3 # energy    4.07116489 # occ.  2.00000000
 
ion      s     py     pz     px    dxy    dyz    dz2    dxz  x2-y2    tot
    1  0.000  0.000  0.000  0.000  0.186  0.000  0.398  0.192  0.141  0.916
 
band     4 # energy    6.49813659 # occ.  2.00000000
 
ion      s     py     pz     px    dxy    dyz    dz2    dxz  x2-y2    tot
    1  0.000  0.000  0.000  0.000  0.293  0.000  0.303  0.286  0.096  0.978
 
band     5 # energy    6.49813669 # occ.  2.00000000
 
ion      s     py     pz     px    dxy    dyz    dz2    dxz  x2-y2    tot
    1  0.000  0.000  0.000  0.000  0.093  0.386  0.096  0.100  0.303  0.978
 
band     6 # energy    7.49908518 # occ.  2.00000000
 
ion      s     py     pz     px    dxy    dyz    dz2    dxz  x2-y2    tot
    1  0.044  0.137  0.137  0.137  0.016  0.016  0.000  0.016  0.000  0.505
 
band     7 # energy   11.57049350 # occ.  0.00000000
 
ion      s     py     pz     px    dxy    dyz    dz2    dxz  x2-y2    tot
    1  0.424  0.017  0.017  0.017  0.115  0.115  0.000  0.115  0.000  0.822
 
band     8 # energy   22.52557999 # occ.  0.00000000
 
ion      s     py     pz     px    dxy    dyz    dz2    dxz  x2-y2    tot
    1  0.000  0.007  0.007  0.007  0.000  0.000  0.000  0.000  0.000  0.022
 
band     9 # energy   25.18699557 # occ.  0.00000000
 
ion      s     py     pz     px    dxy    dyz    dz2    dxz  x2-y2    tot
    1  0.000  0.086  0.087  0.346  0.001  0.002  0.000  0.001  0.000  0.522
 
band    10 # energy   25.18699578 # occ.  0.00000000
 
ion      s     py     pz     px    dxy    dyz    dz2    dxz  x2-y2    tot
    1  0.000  0.259  0.259  0.000  0.002  0.000  0.000  0.002  0.000  0.522
 
band    11 # energy   32.40227222 # occ.  0.00000000
 
ion      s     py     pz     px    dxy    dyz    dz2    dxz  x2-y2    tot
    1  0.000  0.000  0.000  0.000  0.083  0.000  0.302  0.080  0.095  0.560
 
band    12 # energy   32.40227231 # occ.  0.00000000
 
ion      s     py     pz     px    dxy    dyz    dz2    dxz  x2-y2    tot
    1  0.000  0.000  0.000  0.000  0.026  0.109  0.095  0.028  0.302  0.560
 
band    13 # energy   33.46287687 # occ.  0.00000000
 
ion      s     py     pz     px    dxy    dyz    dz2    dxz  x2-y2    tot
    1  0.166  0.002  0.002  0.002  0.115  0.115  0.000  0.115  0.000  0.519
 
band    14 # energy   39.37773970 # occ.  0.00000000
 
ion      s     py     pz     px    dxy    dyz    dz2    dxz  x2-y2    tot
    1  0.000  0.050  0.055  0.210  0.003  0.012  0.001  0.003  0.002  0.336
 
band    15 # energy   39.37773972 # occ.  0.00000000
 
ion      s     py     pz     px    dxy    dyz    dz2    dxz  x2-y2    tot
    1  0.000  0.161  0.155  0.000  0.009  0.000  0.002  0.009  0.001  0.336
 
band    16 # energy   40.69159264 # occ.  0.00000000
 
ion      s     py     pz     px    dxy    dyz    dz2    dxz  x2-y2    tot
    1  0.036  0.034  0.034  0.034  0.010  0.010  0.000  0.010  0.000  0.169
 

 k-point     9 :    0.06666667 0.06666667 0.00000000     weight = 0.00177778

band     1 # energy   -0.55175373 # occ.  2.00000000
 
ion      s     py     pz     px    dxy    dyz    dz2    dxz  x2-y2    tot
    1  0.565  0.000  0.007  0.000  0.000  0.000  0.000  0.000  0.000  0.573
 
band     2 # energy    3.99835334 # occ.  2.00000000
 
ion      s     py     pz     px    dxy    dyz    dz2    dxz  x2-y2    tot
    1  0.000  0.000  0.000  0.000  0.921  0.000  0.000  0.000  0.000  0.921
 
band     3 # energy    4.17757832 # occ.  2.00000000
 
ion      s     py     pz     px    dxy    dyz    dz2    dxz  x2-y2    tot
    1  0.000  0.001  0.000  0.001  0.000  0.461  0.000  0.464  0.000  0.926
 
band     4 # energy    4.17757834 # occ.  2.00000000
 
ion      s     py     pz     px    dxy    dyz    dz2    dxz  x2-y2    tot
    1  0.000  0.001  0.000  0.001  0.000  0.464  0.000  0.461  0.000  0.926
 
band     5 # energy    5.34789452 # occ.  2.00000000
 
ion      s     py     pz     px    dxy    dyz    dz2    dxz  x2-y2    tot
    1  0.000  0.000  0.000  0.000  0.000  0.000  0.956  0.000  0.000  0.956
 
band     6 # energy    5.48948532 # occ.  2.00000000
 
ion      s     py     pz     px    dxy    dyz    dz2    dxz  x2-y2    tot
    1  0.000  0.000  0.000  0.000  0.000  0.000  0.000  0.000  0.962  0.962
 
band     7 # energy   23.26894395 # occ.  0.00000000
 
ion      s     py     pz     px    dxy    dyz    dz2    dxz  x2-y2    tot
    1  0.000  0.000  0.000  0.000  0.022  0.000  0.000  0.000  0.000  0.022
 
band     8 # energy   26.03959101 # occ.  0.00000000
 
ion      s     py     pz     px    dxy    dyz    dz2    dxz  x2-y2    tot
    1  0.026  0.000  0.168  0.000  0.000  0.000  0.014  0.000  0.000  0.208
 
band     9 # energy   26.50333526 # occ.  0.00000000
 
ion      s     py     pz     px    dxy    dyz    dz2    dxz  x2-y2    tot
    1  0.000  0.133  0.000  0.132  0.000  0.014  0.000  0.014  0.000  0.292
 
band    10 # energy   26.50333526 # occ.  0.00000000
 
ion      s     py     pz     px    dxy    dyz    dz2    dxz  x2-y2    tot
    1  0.000  0.132  0.000  0.133  0.000  0.014  0.000  0.014  0.000  0.292
 
band    11 # energy   32.60160485 # occ.  0.00000000
 
ion      s     py     pz     px    dxy    dyz    dz2    dxz  x2-y2    tot
    1  0.036  0.000  0.116  0.000  0.000  0.000  0.000  0.000  0.000  0.153
 
band    12 # energy   33.82150414 # occ.  0.00000000
 
ion      s     py     pz     px    dxy    dyz    dz2    dxz  x2-y2    tot
    1  0.000  0.100  0.000  0.099  0.000  0.179  0.000  0.177  0.000  0.555
 
band    13 # energy   33.82150415 # occ.  0.00000000
 
ion      s     py     pz     px    dxy    dyz    dz2    dxz  x2-y2    tot
    1  0.000  0.099  0.000  0.100  0.000  0.177  0.000  0.179  0.000  0.555
 