<?xml version="1.0" encoding="ISO-8859-1"?>
<modeling>
 <generator>
  <i name="program" type="string">vasp </i>
  <i name="version" type="string">5.4.4.18Apr17-6-g9f103f2a35  </i>
  <i name="subversion" type="string">(build Apr 05 2022 19:15:58) complex            parallel </i>
  <i name="platform" type="string">LinuxIFC </i>
  <i name="date" type="string">2024 04 03 </i>
  <i name="time" type="string">01:54:56 </i>
 </generator>
 <incar>
  <i type="string" name="SYSTEM">Au</i>
  <i type="string" name="PREC">a</i>
  <i type="int" name="NSIM">     4</i>
  <i type="logical" name="ADDGRID"> T  </i>
  <i name="AMIX">      0.20000000</i>
  <i name="BMIX">      0.00001000</i>
  <i name="AMIX_MAG">      0.80000000</i>
  <i name="BMIX_MAG">      0.00001000</i>
  <i type="int" name="ICHARG">     2</i>
  <i type="int" name="NELM">   500</i>
  <i name="EDIFF">      0.00000010</i>
  <i name="EDIFFG">     -0.00800000</i>
  <i name="ENCUT">    600.00000000</i>
  <i type="int" name="NEDOS">  9999</i>
  <i type="logical" name="LREAL"> F  </i>
  <i type="logical" name="LPLANE"> T  </i>
  <i type="int" name="ISMEAR">    -5</i>
  <i name="SIGMA">      0.00100000</i>
  <i type="logical" name="LWAVE"> F  </i>
  <i type="int" name="LORBIT">    11</i>
  <i type="logical" name="LSCALU"> F  </i>
  <i type="logical" name="LASPH"> T  </i>
  <v type="int" name="KPOINT_BSE">    -1     0     0     0</v>
  <i type="int" name="NELM">   500</i>
  <i type="string" name="GGA"> PE</i>
  <i type="logical" name="LASPH"> T  </i>
 </incar>
 <structure name="primitive_cell" >
  <crystal>
   <varray name="basis" >
    <v>       0.00000000       2.08564425       2.08564425 </v>
    <v>       2.08564425       0.00000000       2.08564425 </v>
    <v>       2.08564425       2.08564425       0.00000000 </v>
   </varray>
   <i name="volume">     18.14473752 </i>
   <varray name="rec_basis" >
    <v>      -0.23973408       0.23973408       0.23973408 </v>
    <v>       0.23973408      -0.23973408       0.23973408 </v>
    <v>       0.23973408       0.23973408      -0.23973408 </v>
   </varray>
  </crystal>
  <varray name="positions" >
   <v>       0.00000000       0.00000000       0.00000000 </v>
  </varray>
 </structure>
 <varray name="primitive_index" >
  <v type="int" >        1 </v>
 </varray>
 <kpoints>
  <generation param="Gamma">
   <v type="int" name="divisions">      15       15       15 </v>
   <v name="usershift">      0.00000000       0.00000000       0.00000000 </v>
   <v name="genvec1">      0.06666667       0.00000000       0.00000000 </v>
   <v name="genvec2">      0.00000000       0.06666667       0.00000000 </v>
   <v name="genvec3">      0.00000000       0.00000000       0.06666667 </v>
   <v name="shift">      0.00000000       0.00000000       0.00000000 </v>
  </generation>
  <varray name="kpointlist" >
   <v>       0.00000000       0.00000000       0.00000000 </v>
   <v>       0.06666667       0.00000000       0.00000000 </v>
   <v>       0.13333333       0.00000000       0.00000000 </v>
   <v>       0.20000000       0.00000000       0.00000000 </v>
   <v>       0.26666667       0.00000000       0.00000000 </v>
   <v>       0.33333333       0.00000000       0.00000000 </v>
   <v>       0.40000000       0.00000000       0.00000000 </v>
   <v>       0.46666667       0.00000000       0.00000000 </v>
   <v>       0.06666667       0.06666667       0.00000000 </v>
   <v>       0.13333333       0.06666667       0.00000000 </v>
   <v>       0.20000000       0.06666667       0.00000000 </v>
   <v>       0.26666667       0.06666667       0.00000000 </v>
   <v>       0.33333333       0.06666667       0.00000000 </v>
   <v>       0.40000000       0.06666667       0.00000000 </v>
   <v>       0.46666667       0.06666667       0.00000000 </v>
   <v>      -0.46666667       0.06666667       0.00000000 </v>
   <v>      -0.40000000       0.06666667       0.00000000 </v>
   <v>      -0.33333333       0.06666667       0.00000000 </v>
   <v>      -0.26666667       0.06666667       0.00000000 </v>
   <v>      -0.20000000       0.06666667       0.00000000 </v>
   <v>      -0.13333333       0.06666667       0.00000000 </v>
   <v>      -0.06666667       0.06666667       0.00000000 </v>
   <v>       0.13333333       0.13333333       0.00000000 </v>
   <v>       0.20000000       0.13333333       0.00000000 </v>
   <v>       0.26666667       0.13333333       0.00000000 </v>
   <v>       0.33333333       0.13333333       0.00000000 </v>
   <v>       0.40000000       0.13333333       0.00000000 </v>
   <v>       0.46666667       0.13333333       0.00000000 </v>
   <v>      -0.46666667       0.13333333       0.00000000 </v>
   <v>      -0.40000000       0.13333333       0.00000000 </v>
   <v>      -0.33333333       0.13333333       0.00000000 </v>
   <v>      -0.26666667       0.13333333       0.00000000 </v>
   <v>      -0.20000000       0.13333333       0.00000000 </v>
   <v>      -0.13333333       0.13333333       0.00000000 </v>
   <v>       0.20000000       0.20000000       0.00000000 </v>
   <v>       0.26666667       0.20000000       0.00000000 </v>
   <v>       0.33333333       0.20000000       0.00000000 </v>
   <v>       0.40000000       0.20000000       0.00000000 </v>
   <v>       0.46666667       0.20000000       0.00000000 </v>
   <v>      -0.46666667       0.20000000       0.00000000 </v>
   <v>      -0.40000000       0.20000000       0.00000000 </v>
   <v>      -0.33333333       0.20000000       0.00000000 </v>
   <v>      -0.26666667       0.20000000       0.00000000 </v>
   <v>      -0.20000000       0.20000000       0.00000000 </v>
   <v>       0.26666667       0.26666667       0.00000000 </v>
   <v>       0.33333333       0.26666667       0.00000000 </v>
   <v>       0.40000000       0.26666667       0.00000000 </v>
   <v>       0.46666667       0.26666667       0.00000000 </v>
   <v>      -0.46666667       0.26666667       0.00000000 </v>
   <v>      -0.40000000       0.26666667       0.00000000 </v>
   <v>      -0.33333333       0.26666667       0.00000000 </v>
   <v>      -0.26666667       0.26666667       0.00000000 </v>
   <v>       0.33333333       0.33333333       0.00000000 </v>
   <v>       0.40000000       0.33333333       0.00000000 </v>
   <v>       0.46666667       0.33333333       0.00000000 </v>
   <v>      -0.46666667       0.33333333       0.00000000 </v>
   <v>      -0.40000000       0.33333333       0.00000000 </v>
   <v>      -0.33333333       0.33333333       0.00000000 </v>
   <v>       0.40000000       0.40000000       0.00000000 </v>
   <v>       0.46666667       0.40000000       0.00000000 </v>
   <v>      -0.46666667       0.40000000       0.00000000 </v>
   <v>      -0.40000000       0.40000000       0.00000000 </v>
   <v>       0.46666667       0.46666667       0.00000000 </v>
   <v>      -0.46666667       0.46666667       0.00000000 </v>
   <v>       0.20000000       0.13333333       0.06666667 </v>
   <v>       0.26666667       0.13333333       0.06666667 </v>
   <v>       0.33333333       0.13333333       0.06666667 </v>
   <v>       0.40000000       0.13333333       0.06666667 </v>
   <v>       0.46666667       0.13333333       0.06666667 </v>
   <v>      -0.46666667       0.13333333       0.06666667 </v>
   <v>       0.26666667       0.20000000       0.06666667 </v>
   <v>       0.33333333       0.20000000       0.06666667 </v>
   <v>       0.40000000       0.20000000       0.06666667 </v>
   <v>       0.46666667       0.20000000       0.06666667 </v>
   <v>      -0.46666667       0.20000000       0.06666667 </v>
   <v>      -0.40000000       0.20000000       0.06666667 </v>
   <v>      -0.33333333       0.20000000       0.06666667 </v>
   <v>      -0.26666667       0.20000000       0.06666667 </v>
   <v>      -0.20000000       0.20000000       0.06666667 </v>
   <v>      -0.13333333       0.20000000       0.06666667 </v>
   <v>       0.33333333       0.26666667       0.06666667 </v>
   <v>       0.40000000       0.26666667       0.06666667 </v>
   <v>       0.46666667       0.26666667       0.06666667 </v>
   <v>      -0.46666667       0.26666667       0.06666667 </v>
   <v>      -0.40000000       0.26666667       0.06666667 </v>
   <v>      -0.33333333       0.26666667       0.06666667 </v>
   <v>      -0.26666667       0.26666667       0.06666667 </v>
   <v>      -0.20000000       0.26666667       0.06666667 </v>
   <v>       0.40000000       0.33333333       0.06666667 </v>
   <v>       0.46666667       0.33333333       0.06666667 </v>
   <v>      -0.46666667       0.33333333       0.06666667 </v>
   <v>      -0.40000000       0.33333333       0.06666667 </v>
   <v>      -0.33333333       0.33333333       0.06666667 </v>
   <v>      -0.26666667       0.33333333       0.06666667 </v>
   <v>       0.46666667       0.40000000       0.06666667 </v>
   <v>      -0.46666667       0.40000000       0.06666667 </v>
   <v>      -0.40000000       0.40000000       0.06666667 </v>
   <v>      -0.33333333       0.40000000       0.06666667 </v>
   <v>      -0.46666667       0.46666667       0.06666667 </v>
   <v>      -0.40000000       0.46666667       0.06666667 </v>
   <v>       0.40000000       0.26666667       0.13333333 </v>
   <v>       0.46666667       0.26666667       0.13333333 </v>
   <v>      -0.46666667       0.26666667       0.13333333 </v>
   <v>      -0.40000000       0.26666667       0.13333333 </v>
   <v>       0.46666667       0.33333333       0.13333333 </v>
   <v>      -0.46666667       0.33333333       0.13333333 </v>
   <v>      -0.40000000       0.33333333       0.13333333 </v>
   <v>      -0.33333333       0.33333333       0.13333333 </v>
   <v>      -0.26666667       0.33333333       0.13333333 </v>
   <v>      -0.20000000       0.33333333       0.13333333 </v>
   <v>      -0.46666667       0.40000000       0.13333333 </v>
   <v>      -0.40000000       0.40000000       0.13333333 </v>
   <v>      -0.33333333       0.40000000       0.13333333 </v>
   <v>      -0.26666667       0.40000000       0.13333333 </v>
   <v>      -0.40000000       0.46666667       0.13333333 </v>
   <v>      -0.33333333       0.46666667       0.13333333 </v>
   <v>      -0.40000000       0.40000000       0.20000000 </v>
   <v>      -0.33333333       0.40000000       0.20000000 </v>
   <v>      -0.33333333       0.46666667       0.20000000 </v>
   <v>      -0.26666667       0.46666667       0.20000000 </v>
  </varray>
  <varray name="weights" >
   <v>       0.00029630 </v>
   <v>       0.00237037 </v>
   <v>       0.00237037 </v>
   <v>       0.00237037 </v>
   <v>       0.00237037 </v>
   <v>       0.00237037 </v>
   <v>       0.00237037 </v>
   <v>       0.00237037 </v>
   <v>       0.00177778 </v>
   <v>       0.00711111 </v>
   <v>       0.00711111 </v>
   <v>       0.00711111 </v>
   <v>       0.00711111 </v>
   <v>       0.00711111 </v>
   <v>       0.00711111 </v>
   <v>       0.00711111 </v>
   <v>       0.00711111 </v>
   <v>       0.00711111 </v>
   <v>       0.00711111 </v>
   <v>       0.00711111 </v>
   <v>       0.00711111 </v>
   <v>       0.00355556 </v>
   <v>       0.00177778 </v>
   <v>       0.00711111 </v>
   <v>       0.00711111 </v>
   <v>       0.00711111 </v>
   <v>       0.00711111 </v>
   <v>       0.00711111 </v>
   <v>       0.00711111 </v>
   <v>       0.00711111 </v>
   <v>       0.00711111 </v>
   <v>       0.00711111 </v>
   <v>       0.00711111 </v>
   <v>       0.00355556 </v>
   <v>       0.00177778 </v>
   <v>       0.00711111 </v>
   <v>       0.00711111 </v>
   <v>       0.00711111 </v>
   <v>       0.00711111 </v>
   <v>       0.00711111 </v>
   <v>       0.00711111 </v>
   <v>       0.00711111 </v>
   <v>       0.00711111 </v>
   <v>       0.00355556 </v>
   <v>       0.00177778 </v>
   <v>       0.00711111 </v>
   <v>       0.00711111 </v>
   <v>       0.00711111 </v>
   <v>       0.00711111 </v>
   <v>       0.00711111 </v>
   <v>       0.00711111 </v>
   <v>       0.00355556 </v>
   <v>       0.00177778 </v>
   <v>       0.00711111 </v>
   <v>       0.00711111 </v>
   <v>       0.00711111 </v>
   <v>       0.00711111 </v>
   <v>       0.00355556 </v>
   <v>       0.00177778 </v>
   <v>       0.00711111 </v>
   <v>       0.00711111 </v>
   <v>       0.00355556 </v>
   <v>       0.00177778 </v>
   <v>       0.00355556 </v>
   <v>       0.00711111 </v>
   <v>       0.01422222 </v>
   <v>       0.01422222 </v>
   <v>       0.01422222 </v>
   <v>       0.01422222 </v>
   <v>       0.01422222 </v>
   <v>       0.00711111 </v>
   <v>       0.01422222 </v>
   <v>       0.01422222 </v>
   <v>       0.01422222 </v>
   <v>       0.01422222 </v>
   <v>       0.01422222 </v>
   <v>       0.01422222 </v>
   <v>       0.01422222 </v>
   <v>       0.01422222 </v>
   <v>       0.00711111 </v>
   <v>       0.00711111 </v>
   <v>       0.01422222 </v>
   <v>       0.01422222 </v>
   <v>       0.01422222 </v>
   <v>       0.01422222 </v>
   <v>       0.01422222 </v>
   <v>       0.01422222 </v>
   <v>       0.00711111 </v>
   <v>       0.00711111 </v>
   <v>       0.01422222 </v>
   <v>       0.01422222 </v>
   <v>       0.01422222 </v>
   <v>       0.01422222 </v>
   <v>       0.00711111 </v>
   <v>       0.00711111 </v>
   <v>       0.01422222 </v>
   <v>       0.01422222 </v>
   <v>       0.00711111 </v>
   <v>       0.00711111 </v>
   <v>       0.00711111 </v>
   <v>       0.00711111 </v>
   <v>       0.01422222 </v>
   <v>       0.01422222 </v>
   <v>       0.01422222 </v>
   <v>       0.00711111 </v>
   <v>       0.01422222 </v>
   <v>       0.01422222 </v>
   <v>       0.01422222 </v>
   <v>       0.01422222 </v>
   <v>       0.00711111 </v>
   <v>       0.00711111 </v>
   <v>       0.01422222 </v>
   <v>       0.01422222 </v>
   <v>       0.00711111 </v>
   <v>       0.00711111 </v>
   <v>       0.00711111 </v>
   <v>       0.00711111 </v>
   <v>       0.01422222 </v>
   <v>       0.00711111 </v>
   <v>       0.00711111 </v>
  </varray>
  <varray name="tetrahedronlist"  type="int" >
   <v type="int" >       24        1        2        2        9 </v>
   <v type="int" >       48        2        9       10       22 </v>
   <v type="int" >       48        2        3       10       22 </v>
   <v type="int" >       24        2        2        9       22 </v>
   <v type="int" >       48        3       10       11       21 </v>
   <v type="int" >       48        3        4       11       21 </v>
   <v type="int" >       48        3       10       21       22 </v>
   <v type="int" >       48        4       11       12       20 </v>
   <v type="int" >       48        4        5       12       20 </v>
   <v type="int" >       48        4       11       20       21 </v>
   <v type="int" >       48        5       12       13       19 </v>
   <v type="int" >       48        5        6       13       19 </v>
   <v type="int" >       48        5       12       19       20 </v>
   <v type="int" >       48        6       13       14       18 </v>
   <v type="int" >       48        6        7       14       18 </v>
   <v type="int" >       48        6       13       18       19 </v>
   <v type="int" >       48        7       14       15       17 </v>
   <v type="int" >       48        7        8       15       17 </v>
   <v type="int" >       48        7       14       17       18 </v>
   <v type="int" >       48        8       15       16       16 </v>
   <v type="int" >       24        8        8       16       16 </v>
   <v type="int" >       48        8       15       16       17 </v>
   <v type="int" >       24        9       10       10       23 </v>
   <v type="int" >       24        9       10       10       22 </v>
   <v type="int" >       48       10       23       24       65 </v>
   <v type="int" >       48       10       11       24       65 </v>
   <v type="int" >       48       10       11       21       65 </v>
   <v type="int" >       24       10       10       23       65 </v>
   <v type="int" >       24       10       10       22       65 </v>
   <v type="int" >       48       10       21       22       65 </v>
   <v type="int" >       48       11       24       25       66 </v>
   <v type="int" >       48       11       12       25       66 </v>
   <v type="int" >       48       11       12       20       66 </v>
   <v type="int" >       48       11       24       65       66 </v>
   <v type="int" >       48       11       21       65       66 </v>
   <v type="int" >       48       11       20       21       66 </v>
   <v type="int" >       48       12       25       26       67 </v>
   <v type="int" >       48       12       13       26       67 </v>
   <v type="int" >       48       12       13       19       67 </v>
   <v type="int" >       48       12       25       66       67 </v>
   <v type="int" >       48       12       20       66       67 </v>
   <v type="int" >       48       12       19       20       67 </v>
   <v type="int" >       48       13       26       27       68 </v>
   <v type="int" >       48       13       14       27       68 </v>
   <v type="int" >       48       13       14       18       68 </v>
   <v type="int" >       48       13       26       67       68 </v>
   <v type="int" >       48       13       19       67       68 </v>
   <v type="int" >       48       13       18       19       68 </v>
   <v type="int" >       48       14       27       28       69 </v>
   <v type="int" >       48       14       15       28       69 </v>
   <v type="int" >       48       14       15       17       69 </v>
   <v type="int" >       48       14       27       68       69 </v>
   <v type="int" >       48       14       18       68       69 </v>
   <v type="int" >       48       14       17       18       69 </v>
   <v type="int" >       48       15       28       29       70 </v>
   <v type="int" >       48       15       16       29       70 </v>
   <v type="int" >       48       15       16       16       70 </v>
   <v type="int" >       48       15       28       69       70 </v>
   <v type="int" >       48       15       17       69       70 </v>
   <v type="int" >       48       15       16       17       70 </v>
   <v type="int" >       48       16       29       30       70 </v>
   <v type="int" >       48       16       17       30       70 </v>
   <v type="int" >       48       16       29       70       70 </v>
   <v type="int" >       24       16       16       70       70 </v>
   <v type="int" >       48       17       30       31       69 </v>
   <v type="int" >       48       17       18       31       69 </v>
   <v type="int" >       48       17       30       69       70 </v>
   <v type="int" >       48       18       31       32       68 </v>
   <v type="int" >       48       18       19       32       68 </v>
   <v type="int" >       48       18       31       68       69 </v>
   <v type="int" >       48       19       32       33       67 </v>
   <v type="int" >       48       19       20       33       67 </v>
   <v type="int" >       48       19       32       67       68 </v>
   <v type="int" >       48       20       33       34       66 </v>
   <v type="int" >       48       20       21       34       66 </v>
   <v type="int" >       48       20       33       66       67 </v>
   <v type="int" >       24       21       21       34       65 </v>
   <v type="int" >       24       21       21       22       65 </v>
   <v type="int" >       48       21       34       65       66 </v>
   <v type="int" >       24       23       24       24       35 </v>
   <v type="int" >       24       23       24       24       65 </v>
   <v type="int" >       48       24       35       36       71 </v>
   <v type="int" >       48       24       25       36       71 </v>
   <v type="int" >       48       24       25       66       71 </v>
   <v type="int" >       24       24       24       35       71 </v>
   <v type="int" >       24       24       24       65       71 </v>
   <v type="int" >       48       24       65       66       71 </v>
   <v type="int" >       48       25       36       37       72 </v>
   <v type="int" >       48       25       26       37       72 </v>
   <v type="int" >       48       25       26       67       72 </v>
   <v type="int" >       48       25       36       71       72 </v>
   <v type="int" >       48       25       66       71       72 </v>
   <v type="int" >       48       25       66       67       72 </v>
   <v type="int" >       48       26       37       38       73 </v>
   <v type="int" >       48       26       27       38       73 </v>
   <v type="int" >       48       26       27       68       73 </v>
   <v type="int" >       48       26       37       72       73 </v>
   <v type="int" >       48       26       67       72       73 </v>
   <v type="int" >       48       26       67       68       73 </v>
   <v type="int" >       48       27       38       39       74 </v>
   <v type="int" >       48       27       28       39       74 </v>
   <v type="int" >       48       27       28       69       74 </v>
   <v type="int" >       48       27       38       73       74 </v>
   <v type="int" >       48       27       68       73       74 </v>
   <v type="int" >       48       27       68       69       74 </v>
   <v type="int" >       48       28       39       40       75 </v>
   <v type="int" >       48       28       29       40       75 </v>
   <v type="int" >       48       28       29       70       75 </v>
   <v type="int" >       48       28       39       74       75 </v>
   <v type="int" >       48       28       69       74       75 </v>
   <v type="int" >       48       28       69       70       75 </v>
   <v type="int" >       48       29       40       41       76 </v>
   <v type="int" >       48       29       30       41       76 </v>
   <v type="int" >       48       29       30       70       76 </v>
   <v type="int" >       48       29       40       75       76 </v>
   <v type="int" >       48       29       70       75       76 </v>
   <v type="int" >       48       29       70       70       76 </v>
   <v type="int" >       48       30       41       42       77 </v>
   <v type="int" >       48       30       31       42       77 </v>
   <v type="int" >       48       30       31       69       77 </v>
   <v type="int" >       48       30       41       76       77 </v>
   <v type="int" >       48       30       70       76       77 </v>
   <v type="int" >       48       30       69       70       77 </v>
   <v type="int" >       48       31       42       43       78 </v>
   <v type="int" >       48       31       32       43       78 </v>
   <v type="int" >       48       31       32       68       78 </v>
   <v type="int" >       48       31       42       77       78 </v>
   <v type="int" >       48       31       69       77       78 </v>
   <v type="int" >       48       31       68       69       78 </v>
   <v type="int" >       48       32       43       44       79 </v>
   <v type="int" >       48       32       33       44       79 </v>
   <v type="int" >       48       32       33       67       79 </v>
   <v type="int" >       48       32       43       78       79 </v>
   <v type="int" >       48       32       68       78       79 </v>
   <v type="int" >       48       32       67       68       79 </v>
   <v type="int" >       24       33       33       44       80 </v>
   <v type="int" >       24       33       33       34       80 </v>
   <v type="int" >       48       33       34       66       80 </v>
   <v type="int" >       48       33       44       79       80 </v>
   <v type="int" >       48       33       67       79       80 </v>
   <v type="int" >       48       33       66       67       80 </v>
   <v type="int" >       24       34       66       66       80 </v>
   <v type="int" >       24       34       65       66       66 </v>
   <v type="int" >       24       35       36       36       45 </v>
   <v type="int" >       24       35       36       36       71 </v>
   <v type="int" >       48       36       45       46       81 </v>
   <v type="int" >       48       36       37       46       81 </v>
   <v type="int" >       48       36       37       72       81 </v>
   <v type="int" >       24       36       36       45       81 </v>
   <v type="int" >       24       36       36       71       81 </v>
   <v type="int" >       48       36       71       72       81 </v>
   <v type="int" >       48       37       46       47       82 </v>
   <v type="int" >       48       37       38       47       82 </v>
   <v type="int" >       48       37       38       73       82 </v>
   <v type="int" >       48       37       46       81       82 </v>
   <v type="int" >       48       37       72       81       82 </v>
   <v type="int" >       48       37       72       73       82 </v>
   <v type="int" >       48       38       47       48       83 </v>
   <v type="int" >       48       38       39       48       83 </v>
   <v type="int" >       48       38       39       74       83 </v>
   <v type="int" >       48       38       47       82       83 </v>
   <v type="int" >       48       38       73       82       83 </v>
   <v type="int" >       48       38       73       74       83 </v>
   <v type="int" >       48       39       48       49       84 </v>
   <v type="int" >       48       39       40       49       84 </v>
   <v type="int" >       48       39       40       75       84 </v>
   <v type="int" >       48       39       48       83       84 </v>
   <v type="int" >       48       39       74       83       84 </v>
   <v type="int" >       48       39       74       75       84 </v>
   <v type="int" >       48       40       49       50       85 </v>
   <v type="int" >       48       40       41       50       85 </v>
   <v type="int" >       48       40       41       76       85 </v>
   <v type="int" >       48       40       49       84       85 </v>
   <v type="int" >       48       40       75       84       85 </v>
   <v type="int" >       48       40       75       76       85 </v>
   <v type="int" >       48       41       50       51       86 </v>
   <v type="int" >       48       41       42       51       86 </v>
   <v type="int" >       48       41       42       77       86 </v>
   <v type="int" >       48       41       50       85       86 </v>
   <v type="int" >       48       41       76       85       86 </v>
   <v type="int" >       48       41       76       77       86 </v>
   <v type="int" >       48       42       51       52       87 </v>
   <v type="int" >       48       42       43       52       87 </v>
   <v type="int" >       48       42       43       78       87 </v>
   <v type="int" >       48       42       51       86       87 </v>
   <v type="int" >       48       42       77       86       87 </v>
   <v type="int" >       48       42       77       78       87 </v>
   <v type="int" >       24       43       43       52       88 </v>
   <v type="int" >       24       43       43       44       88 </v>
   <v type="int" >       48       43       44       79       88 </v>
   <v type="int" >       48       43       52       87       88 </v>
   <v type="int" >       48       43       78       87       88 </v>
   <v type="int" >       48       43       78       79       88 </v>
   <v type="int" >       24       44       79       79       88 </v>
   <v type="int" >       24       44       79       79       80 </v>
   <v type="int" >       24       45       46       46       53 </v>
   <v type="int" >       24       45       46       46       81 </v>
   <v type="int" >       48       46       53       54       89 </v>
   <v type="int" >       48       46       47       54       89 </v>
   <v type="int" >       48       46       47       82       89 </v>
   <v type="int" >       24       46       46       53       89 </v>
   <v type="int" >       24       46       46       81       89 </v>
   <v type="int" >       48       46       81       82       89 </v>
   <v type="int" >       48       47       54       55       90 </v>
   <v type="int" >       48       47       48       55       90 </v>
   <v type="int" >       48       47       48       83       90 </v>
   <v type="int" >       48       47       54       89       90 </v>
   <v type="int" >       48       47       82       89       90 </v>
   <v type="int" >       48       47       82       83       90 </v>
   <v type="int" >       48       48       55       56       91 </v>
   <v type="int" >       48       48       49       56       91 </v>
   <v type="int" >       48       48       49       84       91 </v>
   <v type="int" >       48       48       55       90       91 </v>
   <v type="int" >       48       48       83       90       91 </v>
   <v type="int" >       48       48       83       84       91 </v>
   <v type="int" >       48       49       56       57       92 </v>
   <v type="int" >       48       49       50       57       92 </v>
   <v type="int" >       48       49       50       85       92 </v>
   <v type="int" >       48       49       56       91       92 </v>
   <v type="int" >       48       49       84       91       92 </v>
   <v type="int" >       48       49       84       85       92 </v>
   <v type="int" >       48       50       57       58       93 </v>
   <v type="int" >       48       50       51       58       93 </v>
   <v type="int" >       48       50       51       86       93 </v>
   <v type="int" >       48       50       57       92       93 </v>
   <v type="int" >       48       50       85       92       93 </v>
   <v type="int" >       48       50       85       86       93 </v>
   <v type="int" >       24       51       51       58       94 </v>
   <v type="int" >       24       51       51       52       94 </v>
   <v type="int" >       48       51       52       87       94 </v>
   <v type="int" >       48       51       58       93       94 </v>
   <v type="int" >       48       51       86       93       94 </v>
   <v type="int" >       48       51       86       87       94 </v>
   <v type="int" >       24       52       87       87       94 </v>
   <v type="int" >       24       52       87       87       88 </v>
   <v type="int" >       24       53       54       54       59 </v>
   <v type="int" >       24       53       54       54       89 </v>
   <v type="int" >       48       54       59       60       95 </v>
   <v type="int" >       48       54       55       60       95 </v>
   <v type="int" >       48       54       55       90       95 </v>
   <v type="int" >       24       54       54       59       95 </v>
   <v type="int" >       24       54       54       89       95 </v>
   <v type="int" >       48       54       89       90       95 </v>
   <v type="int" >       48       55       60       61       96 </v>
   <v type="int" >       48       55       56       61       96 </v>
   <v type="int" >       48       55       56       91       96 </v>
   <v type="int" >       48       55       60       95       96 </v>
   <v type="int" >       48       55       90       95       96 </v>
   <v type="int" >       48       55       90       91       96 </v>
   <v type="int" >       48       56       61       62       97 </v>
   <v type="int" >       48       56       57       62       97 </v>
   <v type="int" >       48       56       57       92       97 </v>
   <v type="int" >       48       56       61       96       97 </v>
   <v type="int" >       48       56       91       96       97 </v>
   <v type="int" >       48       56       91       92       97 </v>
   <v type="int" >       24       57       57       62       98 </v>
   <v type="int" >       24       57       57       58       98 </v>
   <v type="int" >       48       57       58       93       98 </v>
   <v type="int" >       48       57       62       97       98 </v>
   <v type="int" >       48       57       92       97       98 </v>
   <v type="int" >       48       57       92       93       98 </v>
   <v type="int" >       24       58       93       93       98 </v>
   <v type="int" >       24       58       93       93       94 </v>
   <v type="int" >       24       59       60       60       63 </v>
   <v type="int" >       24       59       60       60       95 </v>
   <v type="int" >       48       60       63       64       99 </v>
   <v type="int" >       48       60       61       64       99 </v>
   <v type="int" >       48       60       61       96       99 </v>
   <v type="int" >       24       60       60       63       99 </v>
   <v type="int" >       24       60       60       95       99 </v>
   <v type="int" >       48       60       95       96       99 </v>
   <v type="int" >       24       61       61       64      100 </v>
   <v type="int" >       24       61       61       62      100 </v>
   <v type="int" >       48       61       62       97      100 </v>
   <v type="int" >       48       61       64       99      100 </v>
   <v type="int" >       48       61       96       99      100 </v>
   <v type="int" >       48       61       96       97      100 </v>
   <v type="int" >       24       62       97       97      100 </v>
   <v type="int" >       24       62       97       97       98 </v>
   <v type="int" >       12       63       63       64       64 </v>
   <v type="int" >       24       63       64       64       99 </v>
   <v type="int" >       12       64       64       99       99 </v>
   <v type="int" >       24       64       99       99      100 </v>
   <v type="int" >       24       65       66       66       71 </v>
   <v type="int" >       48       66       71       72       80 </v>
   <v type="int" >       48       66       67       72       80 </v>
   <v type="int" >       24       66       66       71       80 </v>
   <v type="int" >       48       67       72       73       79 </v>
   <v type="int" >       48       67       68       73       79 </v>
   <v type="int" >       48       67       72       79       80 </v>
   <v type="int" >       48       68       73       74       78 </v>
   <v type="int" >       48       68       69       74       78 </v>
   <v type="int" >       48       68       73       78       79 </v>
   <v type="int" >       48       69       74       75       77 </v>
   <v type="int" >       48       69       70       75       77 </v>
   <v type="int" >       48       69       74       77       78 </v>
   <v type="int" >       48       70       75       76       76 </v>
   <v type="int" >       24       70       70       76       76 </v>
   <v type="int" >       48       70       75       76       77 </v>
   <v type="int" >       24       71       72       72       81 </v>
   <v type="int" >       24       71       72       72       80 </v>
   <v type="int" >       48       72       81       82      101 </v>
   <v type="int" >       48       72       73       82      101 </v>
   <v type="int" >       48       72       73       79      101 </v>
   <v type="int" >       24       72       72       81      101 </v>
   <v type="int" >       24       72       72       80      101 </v>
   <v type="int" >       48       72       79       80      101 </v>
   <v type="int" >       48       73       82       83      102 </v>
   <v type="int" >       48       73       74       83      102 </v>
   <v type="int" >       48       73       74       78      102 </v>
   <v type="int" >       48       73       82      101      102 </v>
   <v type="int" >       48       73       79      101      102 </v>
   <v type="int" >       48       73       78       79      102 </v>
   <v type="int" >       48       74       83       84      103 </v>
   <v type="int" >       48       74       75       84      103 </v>
   <v type="int" >       48       74       75       77      103 </v>
   <v type="int" >       48       74       83      102      103 </v>
   <v type="int" >       48       74       78      102      103 </v>
   <v type="int" >       48       74       77       78      103 </v>
   <v type="int" >       48       75       84       85      104 </v>
   <v type="int" >       48       75       76       85      104 </v>
   <v type="int" >       48       75       76       76      104 </v>
   <v type="int" >       48       75       84      103      104 </v>
   <v type="int" >       48       75       77      103      104 </v>
   <v type="int" >       48       75       76       77      104 </v>
   <v type="int" >       48       76       85       86      104 </v>
   <v type="int" >       48       76       77       86      104 </v>
   <v type="int" >       48       76       85      104      104 </v>
   <v type="int" >       24       76       76      104      104 </v>
   <v type="int" >       48       77       86       87      103 </v>
   <v type="int" >       48       77       78       87      103 </v>
   <v type="int" >       48       77       86      103      104 </v>
   <v type="int" >       48       78       87       88      102 </v>
   <v type="int" >       48       78       79       88      102 </v>
   <v type="int" >       48       78       87      102      103 </v>
   <v type="int" >       24       79       79       88      101 </v>
   <v type="int" >       24       79       79       80      101 </v>
   <v type="int" >       48       79       88      101      102 </v>
   <v type="int" >       24       81       82       82       89 </v>
   <v type="int" >       24       81       82       82      101 </v>
   <v type="int" >       48       82       89       90      105 </v>
   <v type="int" >       48       82       83       90      105 </v>
   <v type="int" >       48       82       83      102      105 </v>
   <v type="int" >       24       82       82       89      105 </v>
   <v type="int" >       24       82       82      101      105 </v>
   <v type="int" >       48       82      101      102      105 </v>
   <v type="int" >       48       83       90       91      106 </v>
   <v type="int" >       48       83       84       91      106 </v>
   <v type="int" >       48       83       84      103      106 </v>
   <v type="int" >       48       83       90      105      106 </v>
   <v type="int" >       48       83      102      105      106 </v>
   <v type="int" >       48       83      102      103      106 </v>
   <v type="int" >       48       84       91       92      107 </v>
   <v type="int" >       48       84       85       92      107 </v>
   <v type="int" >       48       84       85      104      107 </v>
   <v type="int" >       48       84       91      106      107 </v>
   <v type="int" >       48       84      103      106      107 </v>
   <v type="int" >       48       84      103      104      107 </v>
   <v type="int" >       48       85       92       93      108 </v>
   <v type="int" >       48       85       86       93      108 </v>
   <v type="int" >       48       85       86      104      108 </v>
   <v type="int" >       48       85       92      107      108 </v>
   <v type="int" >       48       85      104      107      108 </v>
   <v type="int" >       48       85      104      104      108 </v>
   <v type="int" >       48       86       93       94      109 </v>
   <v type="int" >       48       86       87       94      109 </v>
   <v type="int" >       48       86       87      103      109 </v>
   <v type="int" >       48       86       93      108      109 </v>
   <v type="int" >       48       86      104      108      109 </v>
   <v type="int" >       48       86      103      104      109 </v>
   <v type="int" >       24       87       87       94      110 </v>
   <v type="int" >       24       87       87       88      110 </v>
   <v type="int" >       48       87       88      102      110 </v>
   <v type="int" >       48       87       94      109      110 </v>
   <v type="int" >       48       87      103      109      110 </v>
   <v type="int" >       48       87      102      103      110 </v>
   <v type="int" >       24       88      102      102      110 </v>
   <v type="int" >       24       88      101      102      102 </v>
   <v type="int" >       24       89       90       90       95 </v>
   <v type="int" >       24       89       90       90      105 </v>
   <v type="int" >       48       90       95       96      111 </v>
   <v type="int" >       48       90       91       96      111 </v>
   <v type="int" >       48       90       91      106      111 </v>
   <v type="int" >       24       90       90       95      111 </v>
   <v type="int" >       24       90       90      105      111 </v>
   <v type="int" >       48       90      105      106      111 </v>
   <v type="int" >       48       91       96       97      112 </v>
   <v type="int" >       48       91       92       97      112 </v>
   <v type="int" >       48       91       92      107      112 </v>
   <v type="int" >       48       91       96      111      112 </v>
   <v type="int" >       48       91      106      111      112 </v>
   <v type="int" >       48       91      106      107      112 </v>
   <v type="int" >       48       92       97       98      113 </v>
   <v type="int" >       48       92       93       98      113 </v>
   <v type="int" >       48       92       93      108      113 </v>
   <v type="int" >       48       92       97      112      113 </v>
   <v type="int" >       48       92      107      112      113 </v>
   <v type="int" >       48       92      107      108      113 </v>
   <v type="int" >       24       93       93       98      114 </v>
   <v type="int" >       24       93       93       94      114 </v>
   <v type="int" >       48       93       94      109      114 </v>
   <v type="int" >       48       93       98      113      114 </v>
   <v type="int" >       48       93      108      113      114 </v>
   <v type="int" >       48       93      108      109      114 </v>
   <v type="int" >       24       94      109      109      114 </v>
   <v type="int" >       24       94      109      109      110 </v>
   <v type="int" >       24       95       96       96       99 </v>
   <v type="int" >       24       95       96       96      111 </v>
   <v type="int" >       48       96       99      100      115 </v>
   <v type="int" >       48       96       97      100      115 </v>
   <v type="int" >       48       96       97      112      115 </v>
   <v type="int" >       24       96       96       99      115 </v>
   <v type="int" >       24       96       96      111      115 </v>
   <v type="int" >       48       96      111      112      115 </v>
   <v type="int" >       24       97       97      100      116 </v>
   <v type="int" >       24       97       97       98      116 </v>
   <v type="int" >       48       97       98      113      116 </v>
   <v type="int" >       48       97      100      115      116 </v>
   <v type="int" >       48       97      112      115      116 </v>
   <v type="int" >       48       97      112      113      116 </v>
   <v type="int" >       24       98      113      113      116 </v>
   <v type="int" >       24       98      113      113      114 </v>
   <v type="int" >       12       99       99      100      100 </v>
   <v type="int" >       24       99      100      100      115 </v>
   <v type="int" >       12      100      100      115      115 </v>
   <v type="int" >       24      100      115      115      116 </v>
   <v type="int" >       24      101      102      102      105 </v>
   <v type="int" >       48      102      105      106      110 </v>
   <v type="int" >       48      102      103      106      110 </v>
   <v type="int" >       24      102      102      105      110 </v>
   <v type="int" >       48      103      106      107      109 </v>
   <v type="int" >       48      103      104      107      109 </v>
   <v type="int" >       48      103      106      109      110 </v>
   <v type="int" >       48      104      107      108      108 </v>
   <v type="int" >       24      104      104      108      108 </v>
   <v type="int" >       48      104      107      108      109 </v>
   <v type="int" >       24      105      106      106      111 </v>
   <v type="int" >       24      105      106      106      110 </v>
   <v type="int" >       48      106      111      112      117 </v>
   <v type="int" >       48      106      107      112      117 </v>
   <v type="int" >       48      106      107      109      117 </v>
   <v type="int" >       24      106      106      111      117 </v>
   <v type="int" >       24      106      106      110      117 </v>
   <v type="int" >       48      106      109      110      117 </v>
   <v type="int" >       48      107      112      113      118 </v>
   <v type="int" >       48      107      108      113      118 </v>
   <v type="int" >       48      107      108      108      118 </v>
   <v type="int" >       48      107      112      117      118 </v>
   <v type="int" >       48      107      109      117      118 </v>
   <v type="int" >       48      107      108      109      118 </v>
   <v type="int" >       48      108      113      114      118 </v>
   <v type="int" >       48      108      109      114      118 </v>
   <v type="int" >       48      108      113      118      118 </v>
   <v type="int" >       24      108      108      118      118 </v>
   <v type="int" >       24      109      109      114      117 </v>
   <v type="int" >       24      109      109      110      117 </v>
   <v type="int" >       48      109      114      117      118 </v>
   <v type="int" >       24      111      112      112      115 </v>
   <v type="int" >       24      111      112      112      117 </v>
   <v type="int" >       48      112      115      116      119 </v>
   <v type="int" >       48      112      113      116      119 </v>
   <v type="int" >       48      112      113      118      119 </v>
   <v type="int" >       24      112      112      115      119 </v>
   <v type="int" >       24      112      112      117      119 </v>
   <v type="int" >       48      112      117      118      119 </v>
   <v type="int" >       24      113      113      116      120 </v>
   <v type="int" >       24      113      113      114      120 </v>
   <v type="int" >       48      113      114      118      120 </v>
   <v type="int" >       48      113      116      119      120 </v>
   <v type="int" >       48      113      118      119      120 </v>
   <v type="int" >       48      113      118      118      120 </v>
   <v type="int" >       24      114      118      118      120 </v>
   <v type="int" >       24      114      117      118      118 </v>
   <v type="int" >       12      115      115      116      116 </v>
   <v type="int" >       24      115      116      116      119 </v>
   <v type="int" >       12      116      116      119      119 </v>
   <v type="int" >       24      116      119      119      120 </v>
   <v type="int" >       24      117      118      118      119 </v>
   <v type="int" >       48      118      119      120      120 </v>
   <v type="int" >       24      118      118      120      120 </v>
   <v type="int" >       24      118      118      119      120 </v>
   <v type="int" >       12      119      119      120      120 </v>
   <v type="int" >       24      119      120      120      120 </v>
   <v type="int" >        6      120      120      120      120 </v>
  </varray>
  <i name="volumeweight">      0.00004938 </i>
 </kpoints>
 <parameters>
  <separator name="general" >
   <i type="string" name="SYSTEM">Au</i>
   <i type="logical" name="LCOMPAT"> F  </i>
  </separator>
  <separator name="electronic" >
   <i type="string" name="PREC">a</i>
   <i name="ENMAX">    600.00000000</i>
   <i name="ENAUG">    356.67000000</i>
   <i name="EDIFF">      0.00000010</i>
   <i type="int" name="IALGO">    38</i>
   <i type="int" name="IWAVPR">    10</i>
   <i type="int" name="NBANDS">    16</i>
   <i name="NELECT">     11.00000000</i>
   <i type="int" name="TURBO">     0</i>
   <i type="int" name="IRESTART">     0</i>
   <i type="int" name="NREBOOT">     0</i>
   <i type="int" name="NMIN">     0</i>
   <i name="EREF">      0.00000000</i>
   <separator name="electronic smearing" >
    <i type="int" name="ISMEAR">    -5</i>
    <i name="SIGMA">      0.00100000</i>
    <i name="KSPACING">      0.50000000</i>
    <i type="logical" name="KGAMMA"> T  </i>
   </separator>
   <separator name="electronic projectors" >
    <i type="logical" name="LREAL"> F  </i>
    <v name="ROPT">      0.00000000</v>
    <i type="int" name="LMAXPAW">  -100</i>
    <i type="int" name="LMAXMIX">     2</i>
    <i type="logical" name="NLSPLINE"> F  </i>
   </separator>
   <separator name="electronic startup" >
    <i type="int" name="ISTART">     0</i>
    <i type="int" name="ICHARG">     2</i>
    <i type="int" name="INIWAV">     1</i>
   </separator>
   <separator name="electronic spin" >
    <i type="int" name="ISPIN">     1</i>
    <i type="logical" name="LNONCOLLINEAR"> F  </i>
    <v name="MAGMOM">      1.00000000</v>
    <i name="NUPDOWN">     -1.00000000</i>
    <i type="logical" name="LSORBIT"> F  </i>
    <v name="SAXIS">      0.00000000      0.00000000      1.00000000</v>
    <i type="logical" name="LSPIRAL"> F  </i>
    <v name="QSPIRAL">      0.00000000      0.00000000      0.00000000</v>
    <i type="logical" name="LZEROZ"> F  </i>
   </separator>
   <separator name="electronic exchange-correlation" >
    <i type="logical" name="LASPH"> T  </i>
    <i type="logical" name="LMETAGGA"> F  </i>
   </separator>
   <separator name="electronic convergence" >
    <i type="int" name="NELM">   500</i>
    <i type="int" name="NELMDL">     0</i>
    <i type="int" name="NELMIN">     2</i>
    <i name="ENINI">    600.00000000</i>
    <separator name="electronic convergence detail" >
     <i type="logical" name="LDIAG"> T  </i>
     <i type="logical" name="LSUBROT"> F  </i>
     <i name="WEIMIN">      0.00000000</i>
     <i name="EBREAK">      0.00000000</i>
     <i name="DEPER">      0.30000000</i>
     <i type="int" name="NRMM">     4</i>
     <i name="TIME">      0.40000000</i>
    </separator>
   </separator>
   <separator name="electronic mixer" >
    <i name="AMIX">      0.20000000</i>
    <i name="BMIX">      0.00001000</i>
    <i name="AMIN">      0.10000000</i>
    <i name="AMIX_MAG">      0.80000000</i>
    <i name="BMIX_MAG">      0.00001000</i>
    <separator name="electronic mixer details" >
     <i type="int" name="IMIX">     4</i>
     <i type="logical" name="MIXFIRST"> F  </i>
     <i type="int" name="MAXMIX">   -45</i>
     <i name="WC">    100.00000000</i>
     <i type="int" name="INIMIX">     1</i>
     <i type="int" name="MIXPRE">     1</i>
     <i type="int" name="MREMOVE">     5</i>
    </separator>
   </separator>
   <separator name="electronic dipolcorrection" >
    <i type="logical" name="LDIPOL"> F  </i>
    <i type="logical" name="LMONO"> F  </i>
    <i type="int" name="IDIPOL">     0</i>
    <i name="EPSILON">      1.00000000</i>
    <v name="DIPOL">   -100.00000000   -100.00000000   -100.00000000</v>
    <i name="EFIELD">      0.00000000</i>
   </separator>
  </separator>
  <separator name="grids" >
   <i type="int" name="NGX">    24</i>
   <i type="int" name="NGY">    24</i>
   <i type="int" name="NGZ">    24</i>
   <i type="int" name="NGXF">    48</i>
   <i type="int" name="NGYF">    48</i>
   <i type="int" name="NGZF">    48</i>
   <i type="logical" name="ADDGRID"> T  </i>
  </separator>
  <separator name="ionic" >
   <i type="int" name="NSW">     0</i>
   <i type="int" name="IBRION">    -1</i>
   <i type="int" name="MDALGO">     0</i>
   <i type="int" name="ISIF">     2</i>
   <i name="PSTRESS">      0.00000000</i>
   <i name="EDIFFG">     -0.00800000</i>
   <i type="int" name="NFREE">     0</i>
   <i name="POTIM">      0.50000000</i>
   <i name="SMASS">     -3.00000000</i>
   <i name="SCALEE">      1.00000000</i>
  </separator>
  <separator name="ionic md" >
   <i name="TEBEG">      0.00010000</i>
   <i name="TEEND">      0.00010000</i>
   <i type="int" name="NBLOCK">     1</i>
   <i type="int" name="KBLOCK">     1</i>
   <i type="int" name="NPACO">   256</i>
   <i name="APACO">     16.00000000</i>
  </separator>
  <separator name="symmetry" >
   <i type="int" name="ISYM">     2</i>
   <i name="SYMPREC">      0.00001000</i>
  </separator>
  <separator name="dos" >
   <i type="int" name="LORBIT">    11</i>
   <v name="RWIGS">     -1.00000000</v>
   <i type="int" name="NEDOS">  9999</i>
   <i name="EMIN">     10.00000000</i>
   <i name="EMAX">    -10.00000000</i>
   <i name="EFERMI">      0.00000000</i>
  </separator>
  <separator name="writing" >
   <i type="int" name="NWRITE">     2</i>
   <i type="logical" name="LWAVE"> F  </i>
   <i type="logical" name="LDOWNSAMPLE"> F  </i>
   <i type="logical" name="LCHARG"> T  </i>
   <i type="logical" name="LPARD"> F  </i>
   <i type="logical" name="LVTOT"> F  </i>
   <i type="logical" name="LVHAR"> F  </i>
   <i type="logical" name="LELF"> F  </i>
   <i type="logical" name="LOPTICS"> F  </i>
   <v name="STM">      0.00000000      0.00000000      0.00000000      0.00000000      0.00000000      0.00000000      0.00000000</v>
  </separator>
  <separator name="performance" >
   <i type="int" name="NPAR">     8</i>
   <i type="int" name="NSIM">     4</i>
   <i type="int" name="NBLK">    -1</i>
   <i type="logical" name="LPLANE"> T  </i>
   <i type="logical" name="LSCALAPACK"> T  </i>
   <i type="logical" name="LSCAAWARE"> T  </i>
   <i type="logical" name="LSCALU"> F  </i>
   <i type="logical" name="LASYNC"> F  </i>
   <i type="logical" name="LORBITALREAL"> F  </i>
  </separator>
  <separator name="miscellaneous" >
   <i type="int" name="IDIOT">     3</i>
   <i type="int" name="ISPECIAL">     0</i>
   <i type="logical" name="LMUSIC"> F  </i>
   <v name="POMASS">    196.96600000</v>
   <v name="DARWINR">      0.00000000</v>
   <v name="DARWINV">      1.00000000</v>
   <i type="logical" name="LCORR"> T  </i>
  </separator>
  <i type="logical" name="GGA_COMPAT"> T  </i>
  <i type="logical" name="LBERRY"> F  </i>
  <i type="int" name="ICORELEVEL">     0</i>
  <i type="logical" name="LDAU"> F  </i>
  <i type="int" name="I_CONSTRAINED_M">     0</i>
  <separator name="electronic exchange-correlation" >
   <i type="string" name="GGA">PE</i>
   <i type="int" name="VOSKOWN">     0</i>
   <i type="logical" name="LHFCALC"> F  </i>
   <i type="string" name="PRECFOCK"></i>
   <i type="logical" name="LSYMGRAD"> F  </i>
   <i type="logical" name="LHFONE"> F  </i>
   <i type="logical" name="LRHFCALC"> F  </i>
   <i type="logical" name="LTHOMAS"> F  </i>
   <i type="logical" name="LMODELHF"> F  </i>
   <i name="ENCUT4O">     -1.00000000</i>
   <i type="int" name="EXXOEP">     0</i>
   <i type="int" name="FOURORBIT">     0</i>
   <i name="AEXX">      0.00000000</i>
   <i name="HFALPHA">      0.00000000</i>
   <i name="MCALPHA">      0.00000000</i>
   <i name="ALDAX">      1.00000000</i>
   <i name="AGGAX">      1.00000000</i>
   <i name="ALDAC">      1.00000000</i>
   <i name="AGGAC">      1.00000000</i>
   <i type="int" name="NKREDX">     1</i>
   <i type="int" name="NKREDY">     1</i>
   <i type="int" name="NKREDZ">     1</i>
   <i type="logical" name="SHIFTRED"> F  </i>
   <i type="logical" name="ODDONLY"> F  </i>
   <i type="logical" name="EVENONLY"> F  </i>
   <i type="int" name="LMAXFOCK">     0</i>
   <i type="int" name="NMAXFOCKAE">     0</i>
   <i type="logical" name="LFOCKAEDFT"> F  </i>
   <i name="HFSCREEN">      0.00000000</i>
   <i name="HFSCREENC">      0.00000000</i>
   <i type="int" name="NBANDSGWLOW">     0</i>
  </separator>
  <separator name="vdW DFT" >
   <i type="logical" name="LUSE_VDW"> F  </i>
   <i name="Zab_VDW">     -0.84910000</i>
   <i name="PARAM1">      0.12340000</i>
   <i name="PARAM2">      1.00000000</i>
   <i name="PARAM3">      0.00000000</i>
  </separator>
  <separator name="model GW" >
   <i type="int" name="MODEL_GW">     0</i>
   <i name="MODEL_EPS0">     10.88684251</i>
   <i name="MODEL_ALPHA">      1.00000000</i>
  </separator>
  <separator name="linear response parameters" >
   <i type="logical" name="LEPSILON"> F  </i>
   <i type="logical" name="LRPA"> F  </i>
   <i type="logical" name="LNABLA"> F  </i>
   <i type="logical" name="LVEL"> F  </i>
   <i type="int" name="KINTER">     0</i>
   <i name="CSHIFT">      0.10000000</i>
   <i name="OMEGAMAX">     -1.00000000</i>
   <i name="DEG_THRESHOLD">      0.00200000</i>
   <i name="RTIME">     -0.10000000</i>
   <i name="WPLASMAI">      0.00000000</i>
   <v name="DFIELD">      0.00000000      0.00000000      0.00000000</v>
   <v name="WPLASMA">      0.00000000      0.00000000      0.00000000      0.00000000      0.00000000      0.00000000      0.00000000      0.00000000      0.00000000</v>
  </separator>
  <separator name="orbital magnetization" >
   <i type="logical" name="NUCIND"> F  </i>
   <v name="MAGPOS">      0.00000000      0.00000000      0.00000000</v>
   <i type="logical" name="LNICSALL"> T  </i>
   <i type="logical" name="ORBITALMAG"> F  </i>
   <i type="logical" name="LMAGBLOCH"> F  </i>
   <i type="logical" name="LCHIMAG"> F  </i>
   <i type="logical" name="LGAUGE"> T  </i>
   <i type="int" name="MAGATOM">     0</i>
   <v name="MAGDIPOL">      0.00000000      0.00000000      0.00000000</v>
   <v name="AVECCONST">      0.00000000      0.00000000      0.00000000</v>
  </separator>
  <separator name="response functions" >
   <i type="logical" name="LADDER"> F  </i>
   <i type="logical" name="LRPAFORCE"> F  </i>
   <i type="logical" name="LFXC"> F  </i>
   <i type="logical" name="LHARTREE"> T  </i>
   <i type="int" name="IBSE">     0</i>
   <v type="int" name="KPOINT">    -1     0     0     0</v>
   <i type="logical" name="LTCTE"> F  </i>
   <i type="logical" name="LTETE"> F  </i>
   <i type="logical" name="LTRIPLET"> F  </i>
   <i type="logical" name="LFXCEPS"> F  </i>
   <i type="logical" name="LFXHEG"> F  </i>
   <i type="int" name="NATURALO">     2</i>
   <i type="logical" name="L2ORDER"> F  </i>
   <i type="logical" name="LMP2LT"> F  </i>
   <i type="logical" name="LUSEW"> F  </i>
   <i name="ENCUTGW">     -2.00000000</i>
   <i name="ENCUTGWSOFT">     -2.00000000</i>
   <i name="ENCUTLF">     -1.00000000</i>
   <i type="int" name="LMAXMP2">    -1</i>
   <i name="SCISSOR">      0.00000000</i>
   <i type="int" name="NOMEGA">     0</i>
   <i type="int" name="NOMEGAR">     0</i>
   <i type="int" name="NBANDSGW">    -1</i>
   <i type="int" name="NBANDSO">    -1</i>
   <i type="int" name="NBANDSV">    -1</i>
   <i type="int" name="NELM">   500</i>
   <i type="int" name="NELMHF">     1</i>
   <i type="int" name="DIM">     3</i>
   <i type="int" name="ANTIRES">     0</i>
   <i name="OMEGAMAX">    -30.00000000</i>
   <i name="OMEGAMIN">    -30.00000000</i>
   <i name="OMEGATL">   -200.00000000</i>
   <i type="int" name="OMEGAGRID">   140</i>
   <i name="CSHIFT">     -0.10000000</i>
   <i type="logical" name="SELFENERGY"> F  </i>
   <i type="logical" name="LSPECTRAL"> F  </i>
   <i type="logical" name="LSPECTRALGW"> F  </i>
   <i type="logical" name="LSINGLES"> F  </i>
   <i type="logical" name="LFERMIGW"> F  </i>
   <i type="logical" name="ODDONLYGW"> F  </i>
   <i type="logical" name="EVENONLYGW"> F  </i>
   <i type="int" name="NKREDLFX">     1</i>
   <i type="int" name="NKREDLFY">     1</i>
   <i type="int" name="NKREDLFZ">     1</i>
   <i type="int" name="MAXMEM">  2800</i>
   <i type="int" name="TELESCOPE">     0</i>
   <i type="int" name="TAUPAR">     1</i>
   <i type="int" name="OMEGAPAR">    -1</i>
   <i name="LAMBDA">      1.00000000</i>
  </separator>
  <separator name="External order field" >
   <i name="OFIELD_KAPPA">      0.00000000</i>
   <v name="OFIELD_K">      0.00000000      0.00000000      0.00000000</v>
   <i name="OFIELD_Q6_NEAR">      0.00000000</i>
   <i name="OFIELD_Q6_FAR">      0.00000000</i>
   <i name="OFIELD_A">      0.00000000</i>
  </separator>
 </parameters>
 <atominfo>
  <atoms>       1 </atoms>
  <types>       1 </types>
  <array name="atoms" >
   <dimension dim="1">ion</dimension>
   <field type="string">element</field>
   <field type="int">atomtype</field>
   <set>
    <rc><c>Au</c><c>   1</c></rc>
   </set>
  </array>
  <array name="atomtypes" >
   <dimension dim="1">type</dimension>
   <field type="int">atomspertype</field>
   <field type="string">element</field>
   <field>mass</field>
   <field>valence</field>
   <field type="string">pseudopotential</field>
   <set>
    <rc><c>   1</c><c>Au</c><c>    196.96600000</c><c>     11.00000000</c><c>  PW_PBE Au 04Oct2007                   </c></rc>
   </set>
  </array>
 </atominfo>
 <structure name="initialpos" >
  <crystal>
   <varray name="basis" >
    <v>       0.00000000       2.08564425       2.08564425 </v>
    <v>       2.08564425       0.00000000       2.08564425 </v>
    <v>       2.08564425       2.08564425       0.00000000 </v>
   </varray>
   <i name="volume">     18.14473752 </i>
   <varray name="rec_basis" >
    <v>      -0.23973408       0.23973408       0.23973408 </v>
    <v>       0.23973408      -0.23973408       0.23973408 </v>
    <v>       0.23973408       0.23973408      -0.23973408 </v>
   </varray>
  </crystal>
  <varray name="positions" >
   <v>       0.00000000       0.00000000       0.00000000 </v>
  </varray>
 </structure>
 <calculation>
  <scstep>
   <time name="dav">    0.18    0.18</time>
   <time name="total">    0.38    0.41</time>
   <energy>
    <i name="alphaZ">     64.19470378 </i>
    <i name="ewald">   -957.56330713 </i>
    <i name="hartreedc">   -132.13858927 </i>
    <i name="XCdc">     15.44536944 </i>
    <i name="pawpsdc">    874.09750335 </i>
    <i name="pawaedc">   -851.01013482 </i>
    <i name="eentropy">      0.00000000 </i>
    <i name="bandstr">    120.42289982 </i>
    <i name="atom">    926.08544073 </i>
    <i name="e_fr_energy">     59.53388590 </i>
    <i name="e_wo_entrp">     59.53388590 </i>
    <i name="e_0_energy">     59.53388590 </i>
   </energy>
  </scstep>
  <scstep>
   <time name="dav">    0.20    0.20</time>
   <time name="total">    0.23    0.23</time>
   <energy>
    <i name="e_fr_energy">     -2.38480150 </i>
    <i name="e_wo_entrp">     -2.38480150 </i>
    <i name="e_0_energy">     -2.38480150 </i>
   </energy>
  </scstep>
  <scstep>
   <time name="dav">    0.19    0.19</time>
   <time name="total">    0.22    0.22</time>
   <energy>
    <i name="e_fr_energy">     -3.47748265 </i>
    <i name="e_wo_entrp">     -3.47748265 </i>
    <i name="e_0_energy">     -3.47748265 </i>
   </energy>
  </scstep>
  <scstep>
   <time name="dav">    0.19    0.19</time>
   <time name="total">    0.22    0.22</time>
   <energy>
    <i name="e_fr_energy">     -3.48148926 </i>
    <i name="e_wo_entrp">     -3.48148926 </i>
    <i name="e_0_energy">     -3.48148926 </i>
   </energy>
  </scstep>
  <scstep>
   <time name="dav">    0.18    0.18</time>
   <time name="total">    0.29    0.29</time>
   <energy>
    <i name="e_fr_energy">     -3.48151887 </i>
    <i name="e_wo_entrp">     -3.48151887 </i>
    <i name="e_0_energy">     -3.48151887 </i>
   </energy>
  </scstep>
  <scstep>
   <time name="dav">    0.19    0.19</time>
   <time name="total">    0.45    0.45</time>
   <energy>
    <i name="e_fr_energy">     -3.29896084 </i>
    <i name="e_wo_entrp">     -3.29896084 </i>
    <i name="e_0_energy">     -3.29896084 </i>
   </energy>
  </scstep>
  <scstep>
   <time name="dav">    0.19    0.18</time>
   <time name="total">    0.44    0.44</time>
   <energy>
    <i name="e_fr_energy">     -3.22256779 </i>
    <i name="e_wo_entrp">     -3.22256779 </i>
    <i name="e_0_energy">     -3.22256779 </i>
   </energy>
  </scstep>
  <scstep>
   <time name="dav">    0.16    0.17</time>
   <time name="total">    0.42    0.42</time>
   <energy>
    <i name="e_fr_energy">     -3.22082657 </i>
    <i name="e_wo_entrp">     -3.22082657 </i>
    <i name="e_0_energy">     -3.22082657 </i>
   </energy>
  </scstep>
  <scstep>
   <time name="dav">    0.17    0.18</time>
   <time name="total">    0.43    0.44</time>
   <energy>
    <i name="e_fr_energy">     -3.21967741 </i>
    <i name="e_wo_entrp">     -3.21967741 </i>
    <i name="e_0_energy">     -3.21967741 </i>
   </energy>
  </scstep>
  <scstep>
   <time name="dav">    0.19    0.19</time>
   <time name="total">    0.44    0.44</time>
   <energy>
    <i name="e_fr_energy">     -3.21967786 </i>
    <i name="e_wo_entrp">     -3.21967786 </i>
    <i name="e_0_energy">     -3.21967786 </i>
   </energy>
  </scstep>
  <scstep>
   <time name="dav">    0.19    0.19</time>
   <time name="total">    0.38    0.39</time>
   <energy>
    <i name="alphaZ">     64.19470378 </i>
    <i name="ewald">   -957.56330713 </i>
    <i name="hartreedc">   -121.14123063 </i>
    <i name="XCdc">     14.95056043 </i>
    <i name="pawpsdc">   1018.76191448 </i>
    <i name="pawaedc">   -998.03983784 </i>
    <i name="eentropy">      0.00000000 </i>
    <i name="bandstr">     49.53207834 </i>
    <i name="atom">    926.08544073 </i>
    <i name="e_fr_energy">     -3.21967785 </i>
    <i name="e_wo_entrp">     -3.21967785 </i>
    <i name="e_0_energy">     -3.21967785 </i>
   </energy>
  </scstep>
  <structure>
   <crystal>
    <varray name="basis" >
     <v>       0.00000000       2.08564425       2.08564425 </v>
     <v>       2.08564425       0.00000000       2.08564425 </v>
     <v>       2.08564425       2.08564425       0.00000000 </v>
    </varray>
    <i name="volume">     18.14473752 </i>
    <varray name="rec_basis" >
     <v>      -0.23973408       0.23973408       0.23973408 </v>
     <v>       0.23973408      -0.23973408       0.23973408 </v>
     <v>       0.23973408       0.23973408      -0.23973408 </v>
    </varray>
   </crystal>
   <varray name="positions" >
    <v>       0.00000000       0.00000000       0.00000000 </v>
   </varray>
  </structure>
  <varray name="forces" >
   <v>      -0.00000000       0.00000000       0.00000000 </v>
  </varray>
  <varray name="stress" >
   <v>     -15.09047751      -0.00000000       0.00000000 </v>
   <v>       0.00000000     -15.09047751       0.00000000 </v>
   <v>      -0.00000000      -0.00000000     -15.09047751 </v>
  </varray>
  <energy>
   <i name="e_fr_energy">     -3.21967785 </i>
   <i name="e_wo_entrp">     -3.21967785 </i>
   <i name="e_0_energy">      0.00000000 </i>
  </energy>
  <time name="totalsc">    5.84    5.96</time>
  <eigenvalues>
   <array>
    <dimension dim="1">band</dimension>
    <dimension dim="2">kpoint</dimension>
    <dimension dim="3">spin</dimension>
    <field>eigene</field>
    <field>occ</field>
    <set>
     <set comment="spin 1">
      <set comment="kpoint 1">
       <r>   -0.7473    1.0000 </r>
       <r>    4.0932    1.0000 </r>
       <r>    4.0932    1.0000 </r>
       <r>    4.0932    1.0000 </r>
       <r>    5.4482    1.0000 </r>
       <r>    5.4482    1.0000 </r>
       <r>   23.0519    0.0000 </r>
       <r>   26.6902    0.0000 </r>
       <r>   26.6902    0.0000 </r>
       <r>   26.6902    0.0000 </r>
       <r>   31.4007    0.0000 </r>
       <r>   35.3861    0.0000 </r>
       <r>   35.3861    0.0000 </r>
       <r>   35.3861    0.0000 </r>
       <r>   36.7277    0.0000 </r>
       <r>   36.7277    0.0000 </r>
      </set>
      <set comment="kpoint 2">
       <r>   -0.6009    1.0000 </r>
       <r>    4.0492    1.0000 </r>
       <r>    4.1414    1.0000 </r>
       <r>    4.1414    1.0000 </r>
       <r>    5.4276    1.0000 </r>
       <r>    5.4276    1.0000 </r>
       <r>   23.2043    0.0000 </r>
       <r>   25.7068    0.0000 </r>
       <r>   26.8452    0.0000 </r>
       <r>   26.8452    0.0000 </r>
       <r>   32.0599    0.0000 </r>
       <r>   33.9667    0.0000 </r>
       <r>   34.5540    0.0000 </r>
       <r>   34.5540    0.0000 </r>
       <r>   37.1201    0.0000 </r>
       <r>   37.1201    0.0000 </r>
      </set>
      <set comment="kpoint 3">
       <r>   -0.1783    1.0000 </r>
       <r>    3.9478    1.0000 </r>
       <r>    4.2577    1.0000 </r>
       <r>    4.2577    1.0000 </r>
       <r>    5.3968    1.0000 </r>
       <r>    5.3968    1.0000 </r>
       <r>   23.2026    0.0000 </r>
       <r>   24.1040    0.0000 </r>
       <r>   27.2569    0.0000 </r>
       <r>   27.2569    0.0000 </r>
       <r>   30.9336    0.0000 </r>
       <r>   33.0327    0.0000 </r>
       <r>   33.0327    0.0000 </r>
       <r>   35.1073    0.0000 </r>
       <r>   37.5816    0.0000 </r>
       <r>   37.5816    0.0000 </r>
      </set>
      <set comment="kpoint 4">
       <r>    0.4536    1.0000 </r>
       <r>    3.8896    1.0000 </r>
       <r>    4.3506    1.0000 </r>
       <r>    4.3506    1.0000 </r>
       <r>    5.4506    1.0000 </r>
       <r>    5.4506    1.0000 </r>
       <r>   21.1226    0.0000 </r>
       <r>   24.1159    0.0000 </r>
       <r>   27.6961    0.0000 </r>
       <r>   27.6961    0.0000 </r>
       <r>   29.7536    0.0000 </r>
       <r>   31.5671    0.0000 </r>
       <r>   31.5671    0.0000 </r>
       <r>   37.3217    0.0000 </r>
       <r>   37.9574    0.0000 </r>
       <r>   37.9574    0.0000 </r>
      </set>
      <set comment="kpoint 5">
       <r>    1.1200    1.0000 </r>
       <r>    4.0844    1.0000 </r>
       <r>    4.3309    1.0000 </r>
       <r>    4.3309    1.0000 </r>
       <r>    5.6722    1.0000 </r>
       <r>    5.6722    1.0000 </r>
       <r>   18.5721    0.0000 </r>
       <r>   23.8783    0.0000 </r>
       <r>   27.5486    0.0000 </r>
       <r>   27.5486    0.0000 </r>
       <r>   29.8798    0.0000 </r>
       <r>   30.9316    0.0000 </r>
       <r>   30.9316    0.0000 </r>
       <r>   38.3209    0.0000 </r>
       <r>   38.3209    0.0000 </r>
       <r>   39.0159    0.0000 </r>
      </set>
      <set comment="kpoint 6">
       <r>    1.5456    1.0000 </r>
       <r>    4.2327    1.0000 </r>
       <r>    4.2327    1.0000 </r>
       <r>    4.8225    1.0000 </r>
       <r>    6.0008    1.0000 </r>
       <r>    6.0008    1.0000 </r>
       <r>   15.9709    0.0000 </r>
       <r>   23.3096    0.0000 </r>
       <r>   26.6389    0.0000 </r>
       <r>   26.6389    0.0000 </r>
       <r>   31.0175    0.0000 </r>
       <r>   31.3355    0.0000 </r>
       <r>   31.3355    0.0000 </r>
       <r>   38.7096    0.0000 </r>
       <r>   38.7096    0.0000 </r>
       <r>   39.8946    0.0000 </r>
      </set>
      <set comment="kpoint 7">
       <r>    1.6830    1.0000 </r>
       <r>    4.1312    1.0000 </r>
       <r>    4.1312    1.0000 </r>
       <r>    6.1119    1.0000 </r>
       <r>    6.3114    1.0000 </r>
       <r>    6.3114    1.0000 </r>
       <r>   13.5127    0.0000 </r>
       <r>   22.8024    0.0000 </r>
       <r>   25.7169    0.0000 </r>
       <r>   25.7169    0.0000 </r>
       <r>   31.9848    0.0000 </r>
       <r>   31.9848    0.0000 </r>
       <r>   32.4424    0.0000 </r>
       <r>   39.1013    0.0000 </r>
       <r>   39.1013    0.0000 </r>
       <r>   40.3912    0.0000 </r>
      </set>
      <set comment="kpoint 8">
       <r>    1.7022    1.0000 </r>
       <r>    4.0712    1.0000 </r>
       <r>    4.0712    1.0000 </r>
       <r>    6.4981    1.0000 </r>
       <r>    6.4981    1.0000 </r>
       <r>    7.4991    1.0000 </r>
       <r>   11.5705    0.0000 </r>
       <r>   22.5256    0.0000 </r>
       <r>   25.1870    0.0000 </r>
       <r>   25.1870    0.0000 </r>
       <r>   32.4023    0.0000 </r>
       <r>   32.4023    0.0000 </r>
       <r>   33.4629    0.0000 </r>
       <r>   39.3777    0.0000 </r>
       <r>   39.3777    0.0000 </r>
       <r>   40.6916    0.0000 </r>
      </set>
      <set comment="kpoint 9">
       <r>   -0.5518    1.0000 </r>
       <r>    3.9984    1.0000 </r>
       <r>    4.1776    1.0000 </r>
       <r>    4.1776    1.0000 </r>
       <r>    5.3479    1.0000 </r>
       <r>    5.4895    1.0000 </r>
       <r>   23.2689    0.0000 </r>
       <r>   26.0396    0.0000 </r>
       <r>   26.5033    0.0000 </r>
       <r>   26.5033    0.0000 </r>
       <r>   32.6016    0.0000 </r>
       <r>   33.8215    0.0000 </r>
       <r>   33.8215    0.0000 </r>
       <r>   34.9014    0.0000 </r>
       <r>   35.5483    0.0000 </r>
       <r>   38.6586    0.0000 </r>
      </set>
      <set comment="kpoint 10">
       <r>   -0.2195    1.0000 </r>
       <r>    3.8887    1.0000 </r>
       <r>    4.2877    1.0000 </r>
       <r>    4.2929    1.0000 </r>
       <r>    5.2484    1.0000 </r>
       <r>    5.5225    1.0000 </r>
       <r>   23.5135    0.0000 </r>
       <r>   24.5410    0.0000 </r>
       <r>   26.3844    0.0000 </r>
       <r>   27.0358    0.0000 </r>
       <r>   31.4849    0.0000 </r>
       <r>   32.9131    0.0000 </r>
       <r>   33.8959    0.0000 </r>
       <r>   34.7971    0.0000 </r>
       <r>   35.5464    0.0000 </r>
       <r>   39.5244    0.0000 </r>
      </set>
      <set comment="kpoint 11">
       <r>    0.3512    1.0000 </r>
       <r>    3.7842    1.0000 </r>
       <r>    4.3944    1.0000 </r>
       <r>    4.4099    1.0000 </r>
       <r>    5.2305    1.0000 </r>
       <r>    5.5952    1.0000 </r>
       <r>   22.0199    0.0000 </r>
       <r>   24.1476    0.0000 </r>
       <r>   26.3156    0.0000 </r>
       <r>   27.8971    0.0000 </r>
       <r>   29.6677    0.0000 </r>
       <r>   32.0341    0.0000 </r>
       <r>   32.6933    0.0000 </r>
       <r>   35.6250    0.0000 </r>
       <r>   37.2343    0.0000 </r>
       <r>   39.8663    0.0000 </r>
      </set>
      <set comment="kpoint 12">
       <r>    1.0330    1.0000 </r>
       <r>    3.8234    1.0000 </r>
       <r>    4.3666    1.0000 </r>
       <r>    4.4341    1.0000 </r>
       <r>    5.4568    1.0000 </r>
       <r>    5.7895    1.0000 </r>
       <r>   19.5180    0.0000 </r>
       <r>   24.0791    0.0000 </r>
       <r>   26.0495    0.0000 </r>
       <r>   28.2018    0.0000 </r>
       <r>   29.1996    0.0000 </r>
       <r>   31.5394    0.0000 </r>
       <r>   31.9007    0.0000 </r>
       <r>   35.8726    0.0000 </r>
       <r>   39.4782    0.0000 </r>
       <r>   40.0885    0.0000 </r>
      </set>
      <set comment="kpoint 13">
       <r>    1.5609    1.0000 </r>
       <r>    4.1822    1.0000 </r>
       <r>    4.3106    1.0000 </r>
       <r>    4.3609    1.0000 </r>
       <r>    5.9217    1.0000 </r>
       <r>    6.0824    1.0000 </r>
       <r>   16.9005    0.0000 </r>
       <r>   23.5827    0.0000 </r>
       <r>   25.5182    0.0000 </r>
       <r>   27.0757    0.0000 </r>
       <r>   30.5002    0.0000 </r>
       <r>   31.5902    0.0000 </r>
       <r>   32.0735    0.0000 </r>
       <r>   36.2311    0.0000 </r>
       <r>   40.3377    0.0000 </r>
       <r>   40.6594    0.0000 </r>
      </set>
      <set comment="kpoint 14">
       <r>    1.7700    1.0000 </r>
       <r>    4.0943    1.0000 </r>
       <r>    4.2558    1.0000 </r>
       <r>    5.1056    1.0000 </r>
       <r>    6.3621    1.0000 </r>
       <r>    6.6278    1.0000 </r>
       <r>   14.3631    0.0000 </r>
       <r>   23.0397    0.0000 </r>
       <r>   24.9758    0.0000 </r>
       <r>   25.8576    0.0000 </r>
       <r>   31.9544    0.0000 </r>
       <r>   31.9727    0.0000 </r>
       <r>   32.7693    0.0000 </r>
       <r>   36.8100    0.0000 </r>
       <r>   40.4841    0.0000 </r>
       <r>   41.1501    0.0000 </r>
      </set>
      <set comment="kpoint 15">
       <r>    1.8071    1.0000 </r>
       <r>    4.0147    1.0000 </r>
       <r>    4.1726    1.0000 </r>
       <r>    5.7950    1.0000 </r>
       <r>    6.5194    1.0000 </r>
       <r>    7.7368    1.0454 </r>
       <r>   12.1434    0.0000 </r>
       <r>   22.6789    0.0000 </r>
       <r>   24.7264    0.0000 </r>
       <r>   24.9052    0.0000 </r>
       <r>   32.3766    0.0000 </r>
       <r>   32.6446    0.0000 </r>
       <r>   33.7356    0.0000 </r>
       <r>   37.8009    0.0000 </r>
       <r>   40.2310    0.0000 </r>
       <r>   41.1132    0.0000 </r>
      </set>
      <set comment="kpoint 16">
       <r>    1.8092    1.0000 </r>
       <r>    4.0014    1.0000 </r>
       <r>    4.1411    1.0000 </r>
       <r>    6.0245    1.0000 </r>
       <r>    6.4893    1.0000 </r>
       <r>    8.3848    0.7149 </r>
       <r>   11.2484    0.0000 </r>
       <r>   22.5691    0.0000 </r>
       <r>   24.3992    0.0000 </r>
       <r>   24.9535    0.0000 </r>
       <r>   32.5568    0.0000 </r>
       <r>   32.5717    0.0000 </r>
       <r>   34.1487    0.0000 </r>
       <r>   39.0730    0.0000 </r>
       <r>   39.4358    0.0000 </r>
       <r>   40.6925    0.0000 </r>
      </set>
      <set comment="kpoint 17">
       <r>    1.8062    1.0000 </r>
       <r>    4.0547    1.0000 </r>
       <r>    4.1720    1.0000 </r>
       <r>    5.7404    1.0000 </r>
       <r>    6.2707    1.0000 </r>
       <r>    7.4071    1.0753 </r>
       <r>   12.8355    0.0000 </r>
       <r>   22.7172    0.0000 </r>
       <r>   24.3987    0.0000 </r>
       <r>   25.7137    0.0000 </r>
       <r>   31.8733    0.0000 </r>
       <r>   32.4053    0.0000 </r>
       <r>   33.7469    0.0000 </r>
       <r>   38.3479    0.0000 </r>
       <r>   39.2012    0.0000 </r>
       <r>   41.3325    0.0000 </r>
      </set>
      <set comment="kpoint 18">
       <r>    1.7345    1.0000 </r>
       <r>    4.1530    1.0000 </r>
       <r>    4.2590    1.0000 </r>
       <r>    4.8999    1.0000 </r>
       <r>    5.9235    1.0000 </r>
       <r>    6.6182    1.0000 </r>
       <r>   15.1998    0.0000 </r>
       <r>   23.0864    0.0000 </r>
       <r>   24.8553    0.0000 </r>
       <r>   26.9636    0.0000 </r>
       <r>   30.6500    0.0000 </r>
       <r>   31.8063    0.0000 </r>
       <r>   33.1048    0.0000 </r>
       <r>   37.3338    0.0000 </r>
       <r>   38.8125    0.0000 </r>
       <r>   41.8455    0.0000 </r>
      </set>
      <set comment="kpoint 19">
       <r>    1.4238    1.0000 </r>
       <r>    4.0614    1.0000 </r>
       <r>    4.3351    1.0000 </r>
       <r>    4.3715    1.0000 </r>
       <r>    5.5468    1.0000 </r>
       <r>    6.1327    1.0000 </r>
       <r>   17.7753    0.0000 </r>
       <r>   23.5613    0.0000 </r>
       <r>   25.6279    0.0000 </r>
       <r>   28.5594    0.0000 </r>
       <r>   29.2862    0.0000 </r>
       <r>   30.8976    0.0000 </r>
       <r>   32.6686    0.0000 </r>
       <r>   36.5720    0.0000 </r>
       <r>   38.4102    0.0000 </r>
       <r>   41.5666    0.0000 </r>
      </set>
      <set comment="kpoint 20">
       <r>    0.8077    1.0000 </r>
       <r>    3.8070    1.0000 </r>
       <r>    4.3866    1.0000 </r>
       <r>    4.4308    1.0000 </r>
       <r>    5.2753    1.0000 </r>
       <r>    5.7713    1.0000 </r>
       <r>   20.3624    0.0000 </r>
       <r>   23.8977    0.0000 </r>
       <r>   26.3340    0.0000 </r>
       <r>   28.5796    0.0000 </r>
       <r>   29.2994    0.0000 </r>
       <r>   30.9822    0.0000 </r>
       <r>   32.6260    0.0000 </r>
       <r>   36.0196    0.0000 </r>
       <r>   37.7349    0.0000 </r>
       <r>   40.0466    0.0000 </r>
      </set>
      <set comment="kpoint 21">
       <r>    0.1385    1.0000 </r>
       <r>    3.8432    1.0000 </r>
       <r>    4.3457    1.0000 </r>
       <r>    4.3573    1.0000 </r>
       <r>    5.2302    1.0000 </r>
       <r>    5.5598    1.0000 </r>
       <r>   22.7301    0.0000 </r>
       <r>   23.8775    0.0000 </r>
       <r>   26.3095    0.0000 </r>
       <r>   28.3586    0.0000 </r>
       <r>   29.5804    0.0000 </r>
       <r>   32.9758    0.0000 </r>
       <r>   32.9920    0.0000 </r>
       <r>   35.5648    0.0000 </r>
       <r>   36.1172    0.0000 </r>
       <r>   38.7495    0.0000 </r>
      </set>
      <set comment="kpoint 22">
       <r>   -0.3613    1.0000 </r>
       <r>    3.9635    1.0000 </r>
       <r>    4.2085    1.0000 </r>
       <r>    4.2422    1.0000 </r>
       <r>    5.3251    1.0000 </r>
       <r>    5.4779    1.0000 </r>
       <r>   23.4140    0.0000 </r>
       <r>   24.7870    0.0000 </r>
[...]
       </set>
       <set comment="band 4">
        <r>  0.0028  0.0039  0.0100  0.0006  0.0001  0.0355  0.0317  0.0333  0.8194 </r>
       </set>
       <set comment="band 5">
        <r>  0.0008  0.0000  0.0001  0.0022  0.0101  0.0323  0.0005  0.9083  0.0230 </r>
       </set>
       <set comment="band 6">
        <r>  0.2667  0.0056  0.1880  0.0004  0.0003  0.1973  0.0739  0.0118  0.0000 </r>
       </set>
       <set comment="band 7">
        <r>  0.3211  0.0556  0.1614  0.0518  0.0282  0.0130  0.0009  0.0006  0.0331 </r>
       </set>
       <set comment="band 8">
        <r>  0.0484  0.0142  0.0611  0.3487  0.0875  0.0113  0.0610  0.0184  0.0010 </r>
       </set>
       <set comment="band 9">
        <r>  0.0002  0.2406  0.0286  0.0777  0.0147  0.0162  0.1666  0.0012  0.0412 </r>
       </set>
       <set comment="band 10">
        <r>  0.0316  0.1225  0.0063  0.0058  0.1825  0.0003  0.0434  0.0002  0.0019 </r>
       </set>
       <set comment="band 11">
        <r>  0.0446  0.1107  0.0088  0.0124  0.1650  0.0017  0.0413  0.0010  0.0003 </r>
       </set>
       <set comment="band 12">
        <r>  0.0315  0.0031  0.0047  0.0003  0.0000  0.1139  0.0487  0.0007  0.0328 </r>
       </set>
       <set comment="band 13">
        <r>  0.0600  0.0531  0.0042  0.0001  0.0265  0.0042  0.0458  0.0020  0.0132 </r>
       </set>
       <set comment="band 14">
        <r>  0.0434  0.0726  0.0052  0.0015  0.0105  0.0007  0.0005  0.0004  0.0415 </r>
       </set>
       <set comment="band 15">
        <r>  0.0063  0.0214  0.0264  0.0043  0.0243  0.0024  0.0000  0.0090  0.0267 </r>
       </set>
       <set comment="band 16">
        <r>  0.0042  0.0000  0.0017  0.0576  0.0121  0.0052  0.0001  0.0056  0.0062 </r>
       </set>
      </set>
      <set comment="kpoint 113">
       <set comment="band 1">
        <r>  0.0197  0.0116  0.0009  0.0027  0.2406  0.0010  0.5213  0.0010  0.0284 </r>
       </set>
       <set comment="band 2">
        <r>  0.0029  0.0171  0.0002  0.0310  0.5377  0.0098  0.1934  0.0037  0.0324 </r>
       </set>
       <set comment="band 3">
        <r>  0.0059  0.0002  0.0602  0.0008  0.0182  0.7267  0.0006  0.0329  0.0081 </r>
       </set>
       <set comment="band 4">
        <r>  0.0136  0.0021  0.0023  0.0022  0.0033  0.0056  0.0630  0.0176  0.8201 </r>
       </set>
       <set comment="band 5">
        <r>  0.0011  0.0000  0.0014  0.0003  0.0047  0.0618  0.0007  0.8961  0.0109 </r>
       </set>
       <set comment="band 6">
        <r>  0.5294  0.0032  0.0421  0.0242  0.0472  0.0485  0.0202  0.0151  0.0202 </r>
       </set>
       <set comment="band 7">
        <r>  0.0195  0.0437  0.2959  0.0810  0.0425  0.1131  0.0286  0.0116  0.0126 </r>
       </set>
       <set comment="band 8">
        <r>  0.1046  0.0504  0.1041  0.2033  0.0482  0.0284  0.1245  0.0114  0.0005 </r>
       </set>
       <set comment="band 9">
        <r>  0.0059  0.2022  0.0030  0.1624  0.0347  0.0025  0.1100  0.0005  0.0721 </r>
       </set>
       <set comment="band 10">
        <r>  0.0141  0.1353  0.0017  0.0081  0.1636  0.0010  0.0348  0.0000  0.0041 </r>
       </set>
       <set comment="band 11">
        <r>  0.0113  0.0487  0.0151  0.0053  0.0720  0.0864  0.0056  0.0025  0.0016 </r>
       </set>
       <set comment="band 12">
        <r>  0.0639  0.0888  0.0021  0.0064  0.0427  0.0677  0.0619  0.0003  0.0122 </r>
       </set>
       <set comment="band 13">
        <r>  0.1165  0.1034  0.0009  0.0009  0.0431  0.0051  0.0333  0.0036  0.0826 </r>
       </set>
       <set comment="band 14">
        <r>  0.0180  0.0303  0.0202  0.0000  0.0002  0.0030  0.0003  0.0096  0.0359 </r>
       </set>
       <set comment="band 15">
        <r>  0.0002  0.0010  0.0076  0.0150  0.0207  0.0007  0.0247  0.0109  0.0001 </r>
       </set>
       <set comment="band 16">
        <r>  0.0000  0.0049  0.0062  0.0011  0.0028  0.0027  0.0134  0.0011  0.0103 </r>
       </set>
      </set>
      <set comment="kpoint 114">
       <set comment="band 1">
        <r>  0.0140  0.0111  0.0000  0.0025  0.2649  0.0000  0.4944  0.0000  0.0525 </r>
       </set>
       <set comment="band 2">
        <r>  0.0266  0.0240  0.0000  0.0398  0.4695  0.0000  0.1586  0.0000  0.0896 </r>
       </set>
       <set comment="band 3">
        <r>  0.0000  0.0000  0.0536  0.0000  0.0000  0.7424  0.0000  0.0576  0.0000 </r>
       </set>
       <set comment="band 4">
        <r>  0.0108  0.0000  0.0000  0.0074  0.0223  0.0000  0.1415  0.0000  0.7451 </r>
       </set>
       <set comment="band 5">
        <r>  0.0000  0.0000  0.0033  0.0000  0.0000  0.0850  0.0000  0.8828  0.0000 </r>
       </set>
       <set comment="band 6">
        <r>  0.4222  0.0206  0.0000  0.0891  0.1677  0.0000  0.0066  0.0000  0.0325 </r>
       </set>
       <set comment="band 7">
        <r>  0.0000  0.0000  0.4479  0.0000  0.0000  0.1707  0.0000  0.0529  0.0000 </r>
       </set>
       <set comment="band 8">
        <r>  0.2146  0.0973  0.0000  0.1766  0.0215  0.0000  0.1680  0.0000  0.0004 </r>
       </set>
       <set comment="band 9">
        <r>  0.0145  0.1625  0.0000  0.1906  0.0436  0.0000  0.0884  0.0000  0.0945 </r>
       </set>
       <set comment="band 10">
        <r>  0.0038  0.1711  0.0000  0.0146  0.1093  0.0000  0.0280  0.0000  0.0071 </r>
       </set>
       <set comment="band 11">
        <r>  0.0000  0.0000  0.0239  0.0000  0.0000  0.1802  0.0000  0.0034  0.0000 </r>
       </set>
       <set comment="band 12">
        <r>  0.0774  0.1420  0.0000  0.0083  0.0759  0.0000  0.0389  0.0000  0.0037 </r>
       </set>
       <set comment="band 13">
        <r>  0.1407  0.1101  0.0000  0.0048  0.0776  0.0000  0.0217  0.0000  0.1565 </r>
       </set>
       <set comment="band 14">
        <r>  0.0000  0.0000  0.0176  0.0000  0.0000  0.0258  0.0000  0.0264  0.0000 </r>
       </set>
       <set comment="band 15">
        <r>  0.0001  0.0100  0.0000  0.0199  0.0082  0.0000  0.0842  0.0000  0.0023 </r>
       </set>
       <set comment="band 16">
        <r>  0.0350  0.0496  0.0002  0.1927  0.1321  0.0001  0.0462  0.0001  0.1361 </r>
       </set>
      </set>
      <set comment="kpoint 115">
       <set comment="band 1">
        <r>  0.0369  0.0131  0.0009  0.0000  0.0000  0.0001  0.7379  0.0000  0.0073 </r>
       </set>
       <set comment="band 2">
        <r>  0.0000  0.0000  0.0000  0.0158  0.8386  0.0000  0.0000  0.0009  0.0000 </r>
       </set>
       <set comment="band 3">
        <r>  0.0085  0.0004  0.0672  0.0000  0.0000  0.7580  0.0011  0.0000  0.0358 </r>
       </set>
       <set comment="band 4">
        <r>  0.0043  0.0044  0.0046  0.0000  0.0000  0.0311  0.0099  0.0000  0.8953 </r>
       </set>
       <set comment="band 5">
        <r>  0.0000  0.0000  0.0000  0.0008  0.0016  0.0000  0.0000  0.9810  0.0000 </r>
       </set>
       <set comment="band 6">
        <r>  0.1420  0.0011  0.3174  0.0000  0.0000  0.1839  0.0428  0.0000  0.0001 </r>
       </set>
       <set comment="band 7">
        <r>  0.5042  0.0138  0.1192  0.0000  0.0000  0.0147  0.0680  0.0000  0.0156 </r>
       </set>
       <set comment="band 8">
        <r>  0.0000  0.0000  0.0000  0.4935  0.0980  0.0000  0.0000  0.0049  0.0000 </r>
       </set>
       <set comment="band 9">
        <r>  0.0000  0.3415  0.0076  0.0000  0.0000  0.0057  0.1876  0.0000  0.0381 </r>
       </set>
       <set comment="band 10">
        <r>  0.1144  0.1800  0.0029  0.0000  0.0000  0.0000  0.1559  0.0000  0.0044 </r>
       </set>
       <set comment="band 11">
        <r>  0.0000  0.0000  0.0000  0.0121  0.4375  0.0000  0.0000  0.0002  0.0000 </r>
       </set>
       <set comment="band 12">
        <r>  0.0035  0.0001  0.0082  0.0000  0.0000  0.0890  0.0073  0.0000  0.0066 </r>
       </set>
       <set comment="band 13">
        <r>  0.0366  0.0408  0.0209  0.0000  0.0000  0.0004  0.0330  0.0000  0.0116 </r>
       </set>
       <set comment="band 14">
        <r>  0.0575  0.1035  0.0186  0.0000  0.0000  0.0030  0.0171  0.0000  0.0533 </r>
       </set>
       <set comment="band 15">
        <r>  0.0000  0.0000  0.0000  0.0002  0.0441  0.0000  0.0000  0.0007  0.0000 </r>
       </set>
       <set comment="band 16">
        <r>  0.0000  0.0000  0.0000  0.0037  0.0099  0.0000  0.0000  0.0038  0.0000 </r>
       </set>
      </set>
      <set comment="kpoint 116">
       <set comment="band 1">
        <r>  0.0238  0.0145  0.0000  0.0008  0.1070  0.0000  0.6472  0.0000  0.0175 </r>
       </set>
       <set comment="band 2">
        <r>  0.0001  0.0059  0.0000  0.0237  0.7189  0.0000  0.0913  0.0000  0.0045 </r>
       </set>
       <set comment="band 3">
        <r>  0.0000  0.0000  0.0694  0.0000  0.0000  0.7776  0.0000  0.0151  0.0000 </r>
       </set>
       <set comment="band 4">
        <r>  0.0144  0.0044  0.0000  0.0004  0.0005  0.0000  0.0239  0.0000  0.8945 </r>
       </set>
       <set comment="band 5">
        <r>  0.0000  0.0000  0.0006  0.0000  0.0000  0.0228  0.0000  0.9601  0.0000 </r>
       </set>
       <set comment="band 6">
        <r>  0.0000  0.0000  0.4448  0.0000  0.0000  0.1948  0.0000  0.0112  0.0000 </r>
       </set>
       <set comment="band 7">
        <r>  0.6446  0.0064  0.0000  0.0115  0.0134  0.0000  0.0619  0.0000  0.0245 </r>
       </set>
       <set comment="band 8">
        <r>  0.0158  0.0701  0.0000  0.3482  0.0958  0.0000  0.0999  0.0000  0.0025 </r>
       </set>
       <set comment="band 9">
        <r>  0.0023  0.2490  0.0000  0.1250  0.0236  0.0000  0.1346  0.0000  0.0551 </r>
       </set>
       <set comment="band 10">
        <r>  0.0320  0.1021  0.0000  0.0057  0.2248  0.0000  0.0537  0.0000  0.0037 </r>
       </set>
       <set comment="band 11">
        <r>  0.0671  0.1261  0.0000  0.0099  0.1443  0.0000  0.0769  0.0000  0.0035 </r>
       </set>
       <set comment="band 12">
        <r>  0.0000  0.0000  0.0138  0.0000  0.0000  0.1260  0.0000  0.0010  0.0000 </r>
       </set>
       <set comment="band 13">
        <r>  0.1234  0.1457  0.0000  0.0000  0.0119  0.0000  0.0407  0.0000  0.0960 </r>
       </set>
       <set comment="band 14">
        <r>  0.0000  0.0000  0.0311  0.0000  0.0000  0.0001  0.0000  0.0071  0.0000 </r>
       </set>
       <set comment="band 15">
        <r>  0.0001  0.0012  0.0000  0.0055  0.0388  0.0000  0.0086  0.0000  0.0009 </r>
       </set>
       <set comment="band 16">
        <r>  0.0000  0.0000  0.0049  0.0000  0.0000  0.0013  0.0000  0.0008  0.0000 </r>
       </set>
      </set>
      <set comment="kpoint 117">
       <set comment="band 1">
        <r>  0.0213  0.0270  0.0067  0.0000  0.0000  0.0004  0.6881  0.0000  0.0593 </r>
       </set>
       <set comment="band 2">
        <r>  0.0000  0.0000  0.0000  0.0332  0.7982  0.0000  0.0000  0.0238  0.0000 </r>
       </set>
       <set comment="band 3">
        <r>  0.0549  0.0001  0.0472  0.0000  0.0000  0.6653  0.0021  0.0000  0.0673 </r>
       </set>
       <set comment="band 4">
        <r>  0.0020  0.0028  0.0146  0.0000  0.0000  0.0487  0.0898  0.0000  0.7716 </r>
       </set>
       <set comment="band 5">
        <r>  0.0000  0.0000  0.0000  0.0046  0.0371  0.0000  0.0000  0.9285  0.0000 </r>
       </set>
       <set comment="band 6">
        <r>  0.3011  0.0132  0.1305  0.0000  0.0000  0.2385  0.0786  0.0000  0.0020 </r>
       </set>
       <set comment="band 7">
        <r>  0.3062  0.0936  0.1754  0.0000  0.0000  0.0062  0.0043  0.0000  0.0764 </r>
       </set>
       <set comment="band 8">
        <r>  0.0000  0.0000  0.0000  0.4632  0.1493  0.0000  0.0000  0.0426  0.0000 </r>
       </set>
       <set comment="band 9">
        <r>  0.0163  0.1732  0.1314  0.0000  0.0000  0.0404  0.2139  0.0000  0.0182 </r>
       </set>
       <set comment="band 10">
        <r>  0.0160  0.2417  0.0282  0.0000  0.0000  0.0240  0.0118  0.0000  0.0041 </r>
       </set>
       <set comment="band 11">
        <r>  0.0000  0.0000  0.0000  0.0238  0.2692  0.0000  0.0000  0.0023  0.0000 </r>
       </set>
       <set comment="band 12">
        <r>  0.0891  0.0505  0.0005  0.0000  0.0000  0.1140  0.1039  0.0000  0.0717 </r>
       </set>
       <set comment="band 13">
        <r>  0.1074  0.1136  0.0010  0.0000  0.0000  0.0189  0.0161  0.0000  0.0345 </r>
       </set>
       <set comment="band 14">
        <r>  0.0000  0.0000  0.0000  0.0088  0.0587  0.0000  0.0000  0.0132  0.0000 </r>
       </set>
       <set comment="band 15">
        <r>  0.0039  0.0305  0.0302  0.0000  0.0000  0.0000  0.0273  0.0000  0.0602 </r>
       </set>
       <set comment="band 16">
        <r>  0.0000  0.0000  0.0000  0.0918  0.0181  0.0000  0.0000  0.0282  0.0000 </r>
       </set>
      </set>
      <set comment="kpoint 118">
       <set comment="band 1">
        <r>  0.0023  0.0280  0.0010  0.0001  0.0246  0.0055  0.6168  0.0002  0.1378 </r>
       </set>
       <set comment="band 2">
        <r>  0.0160  0.0007  0.0084  0.0331  0.5951  0.1491  0.0034  0.0193  0.0201 </r>
       </set>
       <set comment="band 3">
        <r>  0.0142  0.0034  0.0406  0.0100  0.1682  0.5868  0.0170  0.0000  0.0046 </r>
       </set>
       <set comment="band 4">
        <r>  0.0156  0.0005  0.0060  0.0009  0.0008  0.0229  0.1587  0.0138  0.7058 </r>
       </set>
       <set comment="band 5">
        <r>  0.0012  0.0000  0.0002  0.0020  0.0263  0.0126  0.0016  0.9252  0.0075 </r>
       </set>
       <set comment="band 6">
        <r>  0.4394  0.0067  0.1018  0.0004  0.0051  0.1337  0.0459  0.0084  0.0066 </r>
       </set>
       <set comment="band 7">
        <r>  0.1081  0.0565  0.1428  0.1634  0.0811  0.0330  0.0214  0.0044  0.0496 </r>
       </set>
       <set comment="band 8">
        <r>  0.1053  0.0043  0.1233  0.2792  0.0835  0.0239  0.0026  0.0189  0.0301 </r>
       </set>
       <set comment="band 9">
        <r>  0.0035  0.2128  0.0840  0.0173  0.0061  0.0283  0.2045  0.0000  0.0407 </r>
       </set>
       <set comment="band 10">
        <r>  0.0012  0.1647  0.0121  0.0068  0.0589  0.0457  0.0069  0.0000  0.0030 </r>
       </set>
       <set comment="band 11">
        <r>  0.0000  0.0143  0.0069  0.0131  0.1647  0.0582  0.0006  0.0020  0.0110 </r>
       </set>
       <set comment="band 12">
        <r>  0.0453  0.1896  0.0001  0.0014  0.0145  0.0974  0.0681  0.0000  0.0194 </r>
       </set>
       <set comment="band 13">
        <r>  0.1738  0.0607  0.0039  0.0005  0.0066  0.0061  0.0236  0.0003  0.1194 </r>
       </set>
       <set comment="band 14">
        <r>  0.0002  0.0027  0.0025  0.0097  0.0225  0.0032  0.0113  0.0033  0.0045 </r>
       </set>
       <set comment="band 15">
        <r>  0.0000  0.0032  0.0257  0.0087  0.0020  0.0020  0.0027  0.0152  0.0213 </r>
       </set>
       <set comment="band 16">
        <r>  0.0002  0.0035  0.0001  0.0039  0.0001  0.0001  0.0150  0.0034  0.0038 </r>
       </set>
      </set>
      <set comment="kpoint 119">
       <set comment="band 1">
        <r>  0.0111  0.0263  0.0006  0.0000  0.0000  0.0000  0.7071  0.0000  0.0609 </r>
       </set>
       <set comment="band 2">
        <r>  0.0000  0.0000  0.0000  0.0334  0.8175  0.0000  0.0000  0.0024  0.0000 </r>
       </set>
       <set comment="band 3">
        <r>  0.0090  0.0000  0.0595  0.0000  0.0000  0.7693  0.0001  0.0000  0.0160 </r>
       </set>
       <set comment="band 4">
        <r>  0.0208  0.0026  0.0028  0.0000  0.0000  0.0165  0.0691  0.0000  0.8159 </r>
       </set>
       <set comment="band 5">
        <r>  0.0000  0.0000  0.0000  0.0008  0.0042  0.0000  0.0000  0.9785  0.0000 </r>
       </set>
       <set comment="band 6">
        <r>  0.3943  0.0010  0.1564  0.0000  0.0000  0.1204  0.0522  0.0000  0.0109 </r>
       </set>
       <set comment="band 7">
        <r>  0.2700  0.0172  0.2726  0.0000  0.0000  0.0808  0.0039  0.0000  0.0393 </r>
       </set>
       <set comment="band 8">
        <r>  0.0000  0.0000  0.0000  0.4745  0.1561  0.0000  0.0000  0.0057  0.0000 </r>
       </set>
       <set comment="band 9">
        <r>  0.0004  0.2790  0.0207  0.0000  0.0000  0.0091  0.2378  0.0000  0.0575 </r>
       </set>
       <set comment="band 10">
        <r>  0.0000  0.0000  0.0000  0.0179  0.3096  0.0000  0.0000  0.0003  0.0000 </r>
       </set>
       <set comment="band 11">
        <r>  0.0443  0.2599  0.0087  0.0000  0.0000  0.0211  0.0621  0.0000  0.0012 </r>
       </set>
       <set comment="band 12">
        <r>  0.0272  0.0399  0.0084  0.0000  0.0000  0.1424  0.0380  0.0000  0.0139 </r>
       </set>
       <set comment="band 13">
        <r>  0.1492  0.1128  0.0003  0.0000  0.0000  0.0026  0.0330  0.0000  0.1130 </r>
       </set>
       <set comment="band 14">
        <r>  0.0006  0.0036  0.0319  0.0000  0.0000  0.0011  0.0021  0.0000  0.0089 </r>
       </set>
       <set comment="band 15">
        <r>  0.0000  0.0000  0.0000  0.0097  0.0272  0.0000  0.0000  0.0007  0.0000 </r>
       </set>
       <set comment="band 16">
        <r>  0.0000  0.0000  0.0000  0.0048  0.0025  0.0000  0.0000  0.0042  0.0000 </r>
       </set>
      </set>
      <set comment="kpoint 120">
       <set comment="band 1">
        <r>  0.0018  0.0292  0.0000  0.0000  0.0182  0.0000  0.6319  0.0000  0.1307 </r>
       </set>
       <set comment="band 2">
        <r>  0.0045  0.0022  0.0000  0.0430  0.7809  0.0000  0.0069  0.0000  0.0106 </r>
       </set>
       <set comment="band 3">
        <r>  0.0000  0.0000  0.0533  0.0000  0.0000  0.7949  0.0000  0.0058  0.0000 </r>
       </set>
       <set comment="band 4">
        <r>  0.0306  0.0003  0.0000  0.0011  0.0049  0.0000  0.1557  0.0000  0.7289 </r>
       </set>
       <set comment="band 5">
        <r>  0.0000  0.0000  0.0007  0.0000  0.0000  0.0095  0.0000  0.9732  0.0000 </r>
       </set>
       <set comment="band 6">
        <r>  0.6024  0.0023  0.0000  0.0375  0.0397  0.0000  0.0145  0.0000  0.0551 </r>
       </set>
       <set comment="band 7">
        <r>  0.0000  0.0000  0.4568  0.0000  0.0000  0.1899  0.0000  0.0075  0.0000 </r>
       </set>
       <set comment="band 8">
        <r>  0.0669  0.0296  0.0000  0.3753  0.1282  0.0000  0.0594  0.0000  0.0003 </r>
       </set>
       <set comment="band 9">
        <r>  0.0013  0.2545  0.0000  0.0529  0.0163  0.0000  0.2014  0.0000  0.0806 </r>
       </set>
       <set comment="band 10">
        <r>  0.0021  0.0953  0.0000  0.0150  0.1874  0.0000  0.0143  0.0000  0.0006 </r>
       </set>
       <set comment="band 11">
        <r>  0.0000  0.0000  0.0187  0.0000  0.0000  0.2065  0.0000  0.0005  0.0000 </r>
       </set>
       <set comment="band 12">
        <r>  0.0172  0.3009  0.0000  0.0035  0.0676  0.0000  0.0433  0.0000  0.0001 </r>
       </set>
       <set comment="band 13">
        <r>  0.2023  0.0339  0.0000  0.0007  0.0048  0.0000  0.0416  0.0000  0.1604 </r>
       </set>
       <set comment="band 14">
        <r>  0.0000  0.0000  0.0213  0.0000  0.0000  0.0090  0.0000  0.0041  0.0000 </r>
       </set>
       <set comment="band 15">
        <r>  0.0000  0.0008  0.0000  0.0220  0.0139  0.0000  0.0091  0.0000  0.0001 </r>
       </set>
       <set comment="band 16">
        <r>  0.0000  0.0000  0.0064  0.0000  0.0000  0.0000  0.0000  0.0006  0.0000 </r>
       </set>
      </set>
     </set>
    </set>
   </array>
  </projected>
 </calculation>
 <structure name="finalpos" >
  <crystal>
   <varray name="basis" >
    <v>       0.00000000       2.08564425       2.08564425 </v>
    <v>       2.08564425       0.00000000       2.08564425 </v>
    <v>       2.08564425       2.08564425       0.00000000 </v>
   </varray>
   <i name="volume">     18.14473752 </i>
   <varray name="rec_basis" >
    <v>      -0.23973408       0.23973408       0.23973408 </v>
    <v>       0.23973408      -0.23973408       0.23973408 </v>
    <v>       0.23973408       0.23973408      -0.23973408 </v>
   </varray>
  </crystal>
  <varray name="positions" >
   <v>       0.00000000       0.00000000       0.00000000 </v>
  </varray>
 </structure>
</modeling>
