Au                                      
   1.00000000000000     
     0.000000    2.085644    2.085644
     2.085644    0.000000    2.085644
     2.085644    2.085644    0.000000
   Au
     1
Direct
  0.000000  0.000000  0.000000
 
   48   48   48
  88.520      87.608      84.982      80.942      75.906      70.304      64.495      58.714      53.057      47.523    
  42.064      36.648      31.308      26.155      21.356      17.098      13.527      10.712      8.6220      7.1427    
  6.0996      5.3577      4.8692      4.5937      4.5057      4.5937      4.8692      5.3577      6.0996      7.1427    
  8.6220      10.712      13.527      17.098      21.356      26.155      31.308      36.648      42.064      47.523    
  53.057      58.714      64.495      70.304      75.906      80.942      84.982      87.608      87.608      85.839    
  82.510      77.983      72.685      67.013      61.259      55.586      50.034      44.571      39.156      33.788    
  28.542      23.563      19.036      15.131      11.957      9.5330      7.7816      6.5523      5.6749      5.0681    
  4.6931      4.5147      4.5147      4.6931      5.0681      5.6749      6.5523      7.7816      9.5330      11.957    
  15.131      19.036      23.563      28.542      33.788      39.156      44.571      50.034      55.586      61.260    
  67.013      72.685      77.983      82.510      85.839      87.608      84.982      82.510      78.702      73.939    
  68.618      63.070      57.507      52.021      46.614      41.249      35.911      30.646      25.572      20.862    
  16.697      13.218      10.485      8.4605      7.0269      6.0108      5.2868      4.8105      4.5418      4.4560    
  4.5418      4.8105      5.2868      6.0108      7.0269      8.4605      10.485      13.218      16.697      20.862    
  25.572      30.646      35.911      41.249      46.614      52.021      57.507      63.070      68.619      73.939    
  78.702      82.510      84.982      85.839      80.942      77.983      73.939      69.171      64.012      58.711    
  53.404      48.131      42.876      37.624      32.404      27.311      22.501      18.157      14.437      11.437    
  9.1585      7.5162      6.3555      5.5197      4.9425      4.5858      4.4162      4.4162      4.5858      4.9425    
  5.5197      6.3555      7.5162      9.1585      11.437      14.437      18.156      22.501      27.311      32.404    
  37.624      42.876      48.131      53.404      58.711      64.012      69.171      73.939      77.983      80.942    
  82.510      82.510      75.906      72.685      68.618      64.012      59.122      54.115      49.066      43.990    
  38.882      33.765      28.721      23.888      19.443      15.556      12.344      9.8463      8.0072      6.6998    
  5.7581      5.0854      4.6435      4.3942      4.3144      4.3942      4.6435      5.0854      5.7581      6.6998    
  8.0072      9.8463      12.344      15.556      19.443      23.888      28.721      33.765      38.882      43.990    
  49.066      54.115      59.122      64.012      68.618      72.685      75.906      77.983      78.702      77.983    
  70.304      67.013      63.070      58.711      54.115      49.383      44.556      39.650      34.694      29.758    
  24.973      20.502      16.521      13.162      10.490      8.4805      7.0339      5.9927      5.2335      4.7112    
  4.3878      4.2341      4.2341      4.3878      4.7111      5.2335      5.9927      7.0339      8.4805      10.490    
  13.162      16.521      20.502      24.973      29.758      34.694      39.650      44.556      49.383      54.115    
  58.711      63.070      67.013      70.304      72.685      73.939      73.939      72.685      64.495      61.259    
  57.507      53.404      49.066      44.556      39.909      35.164      30.393      25.716      21.290      17.286    
  13.846      11.054      8.9128      7.3453      6.2141      5.3797      4.7849      4.3936      4.1732      4.1022    
  4.1732      4.3936      4.7849      5.3797      6.2141      7.3453      8.9128      11.054      13.846      17.286    
  21.290      25.716      30.393      35.164      39.909      44.556      49.066      53.404      57.507      61.260    
  64.495      67.013      68.618      69.171      68.619      67.013      58.714      55.586      52.021      48.131    
  43.990      39.650      35.164      30.607      26.094      21.776      17.816      14.362      11.509      9.2795    
  7.6198      6.4128      5.5167      4.8598      4.4086      4.1286      3.9954      3.9954      4.1286      4.4086    
  4.8598      5.5167      6.4128      7.6198      9.2795      11.509      14.362      17.816      21.775      26.094    
  30.607      35.164      39.650      43.990      48.131      52.021      55.586      58.714      61.260      63.070    
  64.012      64.012      63.070      61.260      53.057      50.034      46.614      42.876      38.882      34.694    
  30.393      26.094      21.939      18.087      14.682      11.827      9.5590      7.8423      6.5800      5.6370    
  4.9306      4.4290      4.0975      3.9105      3.8498      3.9105      4.0975      4.4290      4.9306      5.6370    
  6.5800      7.8423      9.5590      11.827      14.682      18.087      21.939      26.094      30.393      34.694    
  38.882      42.876      46.614      50.034      53.058      55.586      57.507      58.711      59.122      58.711    
  57.507      55.586      47.523      44.571      41.249      37.624      33.765      29.758      25.716      21.776    
  18.087      14.791      11.991      9.7341      7.9991      6.7070      5.7339      4.9924      4.4508      4.0772    
  3.8445      3.7331      3.7331      3.8445      4.0772      4.4509      4.9924      5.7339      6.7069      7.9992    
  9.7340      11.991      14.791      18.087      21.775      25.716      29.759      33.765      37.624      41.249    
  44.571      47.523      50.034      52.021      53.404      54.115      54.115      53.404      52.021      50.034    
  42.064      39.156      35.911      32.404      28.721      24.973      21.290      17.816      14.682      11.991    
  9.7936      8.0803      6.7863      5.8019      5.0403      4.4711      4.0647      3.7952      3.6415      3.5919    
  3.6415      3.7952      4.0646      4.4711      5.0403      5.8019      6.7863      8.0804      9.7936      11.991    
  14.682      17.816      21.290      24.972      28.721      32.404      35.911      39.156      42.064      44.571    
  46.614      48.131      49.066      49.383      49.066      48.131      46.614      44.571      36.648      33.788    
  30.646      27.311      23.888      20.502      17.286      14.362      11.827      9.7341      8.0803      6.8134    
  5.8369      5.0708      4.4864      4.0578      3.7600      3.5728      3.4825      3.4825      3.5727      3.7601    
  4.0578      4.4864      5.0707      5.8369      6.8133      8.0803      9.7340      11.827      14.362      17.286    
  20.502      23.888      27.311      30.646      33.788      36.648      39.156      41.249      42.876      43.990    
  44.556      44.556      43.990      42.876      41.249      39.156      31.308      28.542      25.572      22.501    
  19.443      16.521      13.846      11.509      9.5590      7.9991      6.7863      5.8369      5.0810      4.4947    
  4.0544      3.7377      3.5248      3.4025      3.3625      3.4025      3.5248      3.7377      4.0544      4.4947    
  5.0810      5.8370      6.7862      7.9992      9.5589      11.509      13.846      16.521      19.443      22.501    
  25.572      28.542      31.308      33.788      35.911      37.624      38.882      39.650      39.909      39.650    
  38.882      37.624      35.911      33.788      26.155      23.563      20.862      18.157      15.556      13.162    
  11.054      9.2795      7.8423      6.7070      5.8019      5.0708      4.4947      4.0536      3.7267      3.4966    
  3.3499      3.2786      3.2786      3.3500      3.4965      3.7268      4.0535      4.4947      5.0706      5.8019    
  6.7069      7.8423      9.2796      11.054      13.162      15.556      18.157      20.862      23.563      26.155    
  28.542      30.646      32.404      33.765      34.694      35.164      35.164      34.694      33.765      32.404    
  30.646      28.542      21.356      19.036      16.697      14.437      12.344      10.490      8.9128      7.6198    
  6.5800      5.7339      5.0403      4.4864      4.0544      3.7267      3.4872      3.3239      3.2288      3.1976    
  3.2288      3.3239      3.4872      3.7268      4.0544      4.4865      5.0403      5.7339      6.5800      7.6197    
  8.9129      10.489      12.345      14.437      16.697      19.036      21.356      23.563      25.572      27.311    
  28.721      29.759      30.393      30.607      30.393      29.758      28.721      27.311      25.572      23.563    
  17.098      15.131      13.218      11.437      9.8463      8.4805      7.3453      6.4128      5.6370      4.9924    
  4.4711      4.0578      3.7377      3.4966      3.3239      3.2123      3.1575      3.1575      3.2123      3.3239    
  3.4965      3.7377      4.0578      4.4710      4.9924      5.6369      6.4130      7.3450      8.4808      9.8461    
  11.437      13.218      15.131      17.098      19.036      20.862      22.501      23.888      24.972      25.716    
  26.094      26.094      25.716      24.973      23.888      22.501      20.862      19.036      13.527      11.957    
  10.485      9.1585      8.0072      7.0339      6.2141      5.5167      4.9306      4.4508      4.0647      3.7600    
  3.5248      3.3499      3.2288      3.1575      3.1339      3.1575      3.2288      3.3499      3.5248      3.7600    
  4.0648      4.4508      4.9308      5.5165      6.2143      7.0336      8.0073      9.1587      10.485      11.957    
  13.527      15.131      16.697      18.157      19.443      20.502      21.290      21.775      21.939      21.775    
  21.290      20.502      19.443      18.156      16.697      15.131      10.712      9.5330      8.4605      7.5162    
  6.6998      5.9927      5.3797      4.8598      4.4290      4.0772      3.7952      3.5728      3.4025      3.2786    
  3.1976      3.1575      3.1575      3.1976      3.2786      3.4024      3.5728      3.7951      4.0773      4.4287    
  4.8600      5.3795      5.9929      6.6999      7.5159      8.4607      9.5329      10.712      11.957      13.218    
  14.437      15.556      16.521      17.286      17.816      18.087      18.087      17.816      17.286      16.521    
  15.556      14.437      13.218      11.957      8.6220      7.7816      7.0269      6.3555      5.7581      5.2335    
  4.7849      4.4086      4.0975      3.8445      3.6415      3.4825      3.3625      3.2786      3.2288      3.2123    
  3.2288      3.2786      3.3625      3.4825      3.6416      3.8445      4.0976      4.4085      4.7850      5.2335    
  5.7578      6.3559      7.0267      7.7816      8.6221      9.5329      10.485      11.437      12.345      13.162    
  13.846      14.362      14.682      14.791      14.682      14.362      13.846      13.162      12.344      11.437    
  10.485      9.5330      7.1427      6.5523      6.0108      5.5197      5.0854      4.7112      4.3936      4.1286    
  3.9105      3.7331      3.5919      3.4825      3.4025      3.3500      3.3239      3.3239      3.3499      3.4024    
  3.4825      3.5918      3.7331      3.9104      4.1287      4.3937      4.7111      5.0857      5.5194      6.0107    
  6.5527      7.1424      7.7816      8.4607      9.1587      9.8461      10.489      11.054      11.509      11.827    
  11.991      11.991      11.827      11.509      11.054      10.490      9.8463      9.1585      8.4605      7.7816    
  6.0996      5.6749      5.2868      4.9425      4.6435      4.3878      4.1732      3.9954      3.8498      3.7331    
  3.6415      3.5727      3.5248      3.4965      3.4872      3.4965      3.5248      3.5728      3.6416      3.7331    
  3.8500      3.9953      4.1732      4.3878      4.6433      4.9426      5.2870      5.6745      6.0996      6.5527    
  7.0267      7.5159      8.0073      8.4808      8.9129      9.2796      9.5589      9.7340      9.7936      9.7340    
  9.5590      9.2795      8.9128      8.4805      8.0072      7.5162      7.0269      6.5523      5.3577      5.0681    
  4.8105      4.5858      4.3942      4.2341      4.1022      3.9954      3.9105      3.8445      3.7952      3.7601    
  3.7377      3.7268      3.7268      3.7377      3.7600      3.7951      3.8445      3.9104      3.9953      4.1022    
  4.2341      4.3943      4.5857      4.8102      5.0682      5.3579      5.6745      6.0107      6.3559      6.6999    
  7.0336      7.3450      7.6197      7.8423      7.9992      8.0803      8.0804      7.9992      7.8423      7.6198    
  7.3453      7.0339      6.6998      6.3555      6.0108      5.6749      4.8692      4.6931      4.5418      4.4162    
  4.3144      4.2341      4.1732      4.1286      4.0975      4.0772      4.0646      4.0578      4.0544      4.0535    
  4.0544      4.0578      4.0648      4.0773      4.0976      4.1287      4.1732      4.2341      4.3143      4.4162    
  4.5420      4.6930      4.8690      5.0682      5.2870      5.5194      5.7578      5.9929      6.2143      6.4130    
  6.5800      6.7069      6.7862      6.8133      6.7863      6.7069      6.5800      6.4128      6.2141      5.9927    
  5.7581      5.5197      5.2868      5.0681      4.5937      4.5147      4.4560      4.4162      4.3942      4.3878    
  4.3936      4.4086      4.4290      4.4509      4.4711      4.4864      4.4947      4.4947      4.4865      4.4710    
  4.4508      4.4287      4.4085      4.3937      4.3878      4.3943      4.4162      4.4558      4.5148      4.5940    
  4.6930      4.8102      4.9426      5.0857      5.2335      5.3795      5.5165      5.6369      5.7339      5.8019    
  5.8370      5.8369      5.8019      5.7339      5.6370      5.5167      5.3797      5.2335      5.0854      4.9425    
  4.8105      4.6931      4.5057      4.5147      4.5418      4.5858      4.6435      4.7111      4.7849      4.8598    
  4.9306      4.9924      5.0403      5.0707      5.0810      5.0706      5.0403      4.9924      4.9308      4.8600    
  4.7850      4.7111      4.6433      4.5857      4.5420      4.5148      4.5055      4.5148      4.5420      4.5857    
  4.6433      4.7111      4.7850      4.8600      4.9308      4.9924      5.0403      5.0706      5.0810      5.0707    
  5.0403      4.9924      4.9306      4.8598      4.7849      4.7111      4.6435      4.5858      4.5418      4.5147    
  4.5937      4.6931      4.8105      4.9425      5.0854      5.2335      5.3797      5.5167      5.6370      5.7339    
  5.8019      5.8369      5.8370      5.8019      5.7339      5.6369      5.5165      5.3795      5.2335      5.0857    
  4.9426      4.8102      4.6930      4.5940      4.5148      4.4558      4.4162      4.3943      4.3878      4.3937    
  4.4085      4.4287      4.4508      4.4710      4.4865      4.4947      4.4947      4.4864      4.4711      4.4509    
  4.4290      4.4086      4.3936      4.3878      4.3942      4.4162      4.4560      4.5147      4.8692      5.0681    
  5.2868      5.5197      5.7581      5.9927      6.2141      6.4128      6.5800      6.7069      6.7863      6.8133    
  6.7862      6.7069      6.5800      6.4130      6.2143      5.9929      5.7578      5.5194      5.2870      5.0682    
  4.8690      4.6930      4.5420      4.4162      4.3143      4.2341      4.1732      4.1287      4.0976      4.0773    
  4.0648      4.0578      4.0544      4.0535      4.0544      4.0578      4.0646      4.0772      4.0975      4.1286    
  4.1732      4.2341      4.3144      4.4162      4.5418      4.6931      5.3577      5.6749      6.0108      6.3555    
  6.6998      7.0339      7.3453      7.6198      7.8423      7.9992      8.0804      8.0803      7.9992      7.8423    
  7.6197      7.3450      7.0336      6.6999      6.3559      6.0107      5.6745      5.3579      5.0682      4.8102    
  4.5857      4.3943      4.2341      4.1022      3.9953      3.9104      3.8445      3.7951      3.7600      3.7377    
  3.7268      3.7268      3.7377      3.7601      3.7952      3.8445      3.9105      3.9954      4.1022      4.2341    
  4.3942      4.5858      4.8105      5.0681      6.0996      6.5523      7.0269      7.5162      8.0072      8.4805    
  8.9128      9.2795      9.5590      9.7340      9.7936      9.7340      9.5589      9.2796      8.9129      8.4808    
  8.0073      7.5159      7.0267      6.5527      6.0996      5.6745      5.2870      4.9426      4.6433      4.3878    
  4.1732      3.9953      3.8500      3.7331      3.6416      3.5728      3.5248      3.4965      3.4872      3.4965    
  3.5248      3.5727      3.6415      3.7331      3.8498      3.9954      4.1732      4.3878      4.6435      4.9425    
  5.2868      5.6749      7.1427      7.7816      8.4605      9.1585      9.8463      10.490      11.054      11.509    
  11.827      11.991      11.991      11.827      11.509      11.054      10.489      9.8461      9.1587      8.4607    
  7.7816      7.1424      6.5527      6.0107      5.5194      5.0857      4.7111      4.3937      4.1287      3.9104    
  3.7331      3.5918      3.4825      3.4024      3.3499      3.3239      3.3239      3.3500      3.4025      3.4825    
  3.5919      3.7331      3.9105      4.1286      4.3936      4.7112      5.0854      5.5197      6.0108      6.5523    
  8.6220      9.5330      10.485      11.437      12.344      13.162      13.846      14.362      14.682      14.791    
  14.682      14.362      13.846      13.162      12.345      11.437      10.485      9.5329      8.6221      7.7816    
  7.0267      6.3559      5.7578      5.2335      4.7850      4.4085      4.0976      3.8445      3.6416      3.4825    
  3.3625      3.2786      3.2288      3.2123      3.2288      3.2786      3.3625      3.4825      3.6415      3.8445    
  4.0975      4.4086      4.7849      5.2335      5.7581      6.3555      7.0269      7.7816      10.712      11.957    
  13.218      14.437      15.556      16.521      17.286      17.816      18.087      18.087      17.816      17.286    
  16.521      15.556      14.437      13.218      11.957      10.712      9.5329      8.4607      7.5159      6.6999    
  5.9929      5.3795      4.8600      4.4287      4.0773      3.7951      3.5728      3.4024      3.2786      3.1976    
  3.1575      3.1575      3.1976      3.2786      3.4025      3.5728      3.7952      4.0772      4.4290      4.8598    
  5.3797      5.9927      6.6998      7.5162      8.4605      9.5330      13.527      15.131      16.697      18.156    
  19.443      20.502      21.290      21.775      21.939      21.775      21.290      20.502      19.443      18.157    
  16.697      15.131      13.527      11.957      10.485      9.1587      8.0073      7.0336      6.2143      5.5165    
  4.9308      4.4508      4.0648      3.7600      3.5248      3.3499      3.2288      3.1575      3.1339      3.1575    
  3.2288      3.3499      3.5248      3.7600      4.0647      4.4508      4.9306      5.5167      6.2141      7.0339    
  8.0072      9.1585      10.485      11.957      17.098      19.036      20.862      22.501      23.888      24.973    
  25.716      26.094      26.094      25.716      24.972      23.888      22.501      20.862      19.036      17.098    
  15.131      13.218      11.437      9.8461      8.4808      7.3450      6.4130      5.6369      4.9924      4.4710    
  4.0578      3.7377      3.4965      3.3239      3.2123      3.1575      3.1575      3.2123      3.3239      3.4966    
  3.7377      4.0578      4.4711      4.9924      5.6370      6.4128      7.3453      8.4805      9.8463      11.437    
  13.218      15.131      21.356      23.563      25.572      27.311      28.721      29.758      30.393      30.607    
  30.393      29.759      28.721      27.311      25.572      23.563      21.356      19.036      16.697      14.437    
  12.345      10.489      8.9129      7.6197      6.5800      5.7339      5.0403      4.4865      4.0544      3.7268    
  3.4872      3.3239      3.2288      3.1976      3.2288      3.3239      3.4872      3.7267      4.0544      4.4864    
  5.0403      5.7339      6.5800      7.6198      8.9128      10.490      12.344      14.437      16.697      19.036    
  26.155      28.542      30.646      32.404      33.765      34.694      35.164      35.164      34.694      33.765    
  32.404      30.646      28.542      26.155      23.563      20.862      18.157      15.556      13.162      11.054    
  9.2796      7.8423      6.7069      5.8019      5.0706      4.4947      4.0535      3.7268      3.4965      3.3500    
  3.2786      3.2786      3.3499      3.4966      3.7267      4.0536      4.4947      5.0708      5.8019      6.7070    
  7.8423      9.2795      11.054      13.162      15.556      18.157      20.862      23.563      31.308      33.788    
  35.911      37.624      38.882      39.650      39.909      39.650      38.882      37.624      35.911      33.788    
  31.308      28.542      25.572      22.501      19.443      16.521      13.846      11.509      9.5589      7.9992    
  6.7862      5.8370      5.0810      4.4947      4.0544      3.7377      3.5248      3.4025      3.3625      3.4025    
  3.5248      3.7377      4.0544      4.4947      5.0810      5.8369      6.7863      7.9991      9.5590      11.509    
  13.846      16.521      19.443      22.501      25.572      28.542      36.648      39.156      41.249      42.876    
  43.990      44.556      44.556      43.990      42.876      41.249      39.156      36.648      33.788      30.646    
  27.311      23.888      20.502      17.286      14.362      11.827      9.7340      8.0803      6.8133      5.8369    
  5.0707      4.4864      4.0578      3.7601      3.5727      3.4825      3.4825      3.5728      3.7600      4.0578    
  4.4864      5.0708      5.8369      6.8134      8.0803      9.7341      11.827      14.362      17.286      20.502    
  23.888      27.311      30.646      33.788      42.064      44.571      46.614      48.131      49.066      49.383    
  49.066      48.131      46.614      44.571      42.064      39.156      35.911      32.404      28.721      24.972    
  21.290      17.816      14.682      11.991      9.7936      8.0804      6.7863      5.8019      5.0403      4.4711    
  4.0646      3.7952      3.6415      3.5919      3.6415      3.7952      4.0647      4.4711      5.0403      5.8019    
  6.7863      8.0803      9.7936      11.991      14.682      17.816      21.290      24.973      28.721      32.404    
  35.911      39.156      47.523      50.034      52.021      53.404      54.115      54.115      53.404      52.021    
  50.034      47.523      44.571      41.249      37.624      33.765      29.759      25.716      21.775      18.087    
  14.791      11.991      9.7340      7.9992      6.7069      5.7339      4.9924      4.4509      4.0772      3.8445    
  3.7331      3.7331      3.8445      4.0772      4.4508      4.9924      5.7339      6.7070      7.9991      9.7341    
  11.991      14.791      18.087      21.776      25.716      29.758      33.765      37.624      41.249      44.571    
  53.057      55.586      57.507      58.711      59.122      58.711      57.507      55.586      53.058      50.034    
  46.614      42.876      38.882      34.694      30.393      26.094      21.939      18.087      14.682      11.827    
  9.5590      7.8423      6.5800      5.6370      4.9306      4.4290      4.0975      3.9105      3.8498      3.9105    
  4.0975      4.4290      4.9306      5.6370      6.5800      7.8423      9.5590      11.827      14.682      18.087    
  21.939      26.094      30.393      34.694      38.882      42.876      46.614      50.034      58.714      61.260    
  63.070      64.012      64.012      63.070      61.260      58.714      55.586      52.021      48.131      43.990    
  39.650      35.164      30.607      26.094      21.775      17.816      14.362      11.509      9.2795      7.6198    
  6.4128      5.5167      4.8598      4.4086      4.1286      3.9954      3.9954      4.1286      4.4086      4.8598    
  5.5167      6.4128      7.6198      9.2795      11.509      14.362      17.816      21.776      26.094      30.607    
  35.164      39.650      43.990      48.131      52.021      55.586      64.495      67.013      68.619      69.171    
  68.618      67.013      64.495      61.260      57.507      53.404      49.066      44.556      39.909      35.164    
  30.393      25.716      21.290      17.286      13.846      11.054      8.9128      7.3453      6.2141      5.3797    
  4.7849      4.3936      4.1732      4.1022      4.1732      4.3936      4.7849      5.3797      6.2141      7.3453    
  8.9128      11.054      13.846      17.286      21.290      25.716      30.393      35.164      39.909      44.556    
  49.066      53.404      57.507      61.259      70.304      72.685      73.939      73.939      72.685      70.304    
  67.013      63.070      58.711      54.115      49.383      44.556      39.650      34.694      29.758      24.973    
  20.502      16.521      13.162      10.490      8.4805      7.0339      5.9927      5.2335      4.7111      4.3878    
  4.2341      4.2341      4.3878      4.7112      5.2335      5.9927      7.0339      8.4805      10.490      13.162    
  16.521      20.502      24.973      29.758      34.694      39.650      44.556      49.383      54.115      58.711    
  63.070      67.013      75.906      77.983      78.702      77.983      75.906      72.685      68.618      64.012    
  59.122      54.115      49.066      43.990      38.882      33.765      28.721      23.888      19.443      15.556    
  12.344      9.8463      8.0072      6.6998      5.7581      5.0854      4.6435      4.3942      4.3144      4.3942    
  4.6435      5.0854      5.7581      6.6998      8.0072      9.8463      12.344      15.556      19.443      23.888    
  28.721      33.765      38.882      43.990      49.066      54.115      59.122      64.012      68.618      72.685    
  80.942      82.510      82.510      80.942      77.983      73.939      69.171      64.012      58.711      53.404    
  48.131      42.876      37.624      32.404      27.311      22.501      18.156      14.437      11.437      9.1585    
  7.5162      6.3555      5.5197      4.9425      4.5858      4.4162      4.4162      4.5858      4.9425      5.5197    
  6.3555      7.5162      9.1585      11.437      14.437      18.157      22.501      27.311      32.404      37.624    
  42.876      48.131      53.404      58.711      64.012      69.171      73.939      77.983      84.982      85.839    
  84.982      82.510      78.702      73.939      68.619      63.070      57.507      52.021      46.614      41.249    
  35.911      30.646      25.572      20.862      16.697      13.218      10.485      8.4605      7.0269      6.0108    
  5.2868      4.8105      4.5418      4.4560      4.5418      4.8105      5.2868      6.0108      7.0269      8.4605    
  10.485      13.218      16.697      20.862      25.572      30.646      35.911      41.249      46.614      52.021    
  57.507      63.070      68.618      73.939      78.702      82.510      87.608      87.608      85.839      82.510    
  77.983      72.685      67.013      61.260      55.586      50.034      44.571      39.156      33.788      28.542    
  23.563      19.036      15.131      11.957      9.5330      7.7816      6.5523      5.6749      5.0681      4.6931    
  4.5147      4.5147      4.6931      5.0681      5.6749      6.5523      7.7816      9.5330      11.957      15.131    
  19.036      23.563      28.542      33.788      39.156      44.571      50.034      55.586      61.259      67.013    
  72.685      77.983      82.510      85.839      87.608      85.839      82.510      77.983      72.685      67.013    
  61.260      55.586      50.034      44.571      39.155      33.788      28.542      23.563      19.036      15.131    
  11.957      9.5330      7.7816      6.5523      5.6749      5.0681      4.6931      4.5147      4.5148      4.6931    
  5.0681      5.6749      6.5523      7.7816      9.5330      11.957      15.131      19.036      23.563      28.542    
  33.788      39.156      44.571      50.034      55.586      61.260      67.013      72.685      77.983      82.510    
  85.839      87.608      85.839      83.314      79.427      74.570      69.153      63.516      57.879      52.337    
  46.890      41.496      36.136      30.850      25.754      21.018      16.825      13.318      10.559      8.5139    
  7.0659      6.0413      5.3116      4.8314      4.5606      4.4741      4.5606      4.8314      5.3116      6.0413    
  7.0660      8.5139      10.559      13.318      16.825      21.018      25.754      30.850      36.136      41.496    
  46.890      52.337      57.879      63.516      69.153      74.570      79.427      83.314      85.839      86.716    
  82.510      79.427      75.221      70.275      64.946      59.495      54.068      48.706      43.388      38.089    
  32.827      27.691      22.832      18.434      14.658      11.604      9.2803      7.6040      6.4219      5.5730    
  4.9866      4.6240      4.4517      4.4517      4.6240      4.9865      5.5730      6.4219      7.6040      9.2803    
  11.604      14.658      18.434      22.832      27.691      32.827      38.089      43.388      48.706      54.068    
  59.495      64.946      70.275      75.221      79.427      82.510      84.145      84.145      77.983      74.570    