Au                                      
   1.00000000000000     
     0.000000    2.085644    2.085644
     2.085644    0.000000    2.085644
     2.085644    2.085644    0.000000
   Au
     1
Direct
  0.000000  0.000000  0.000000
 
   48   48   48
 0.88513916532E+02 0.87601695933E+02 0.84975462542E+02 0.80936328383E+02 0.75900238194E+02
 0.70298741349E+02 0.64490986389E+02 0.58709816077E+02 0.53054269005E+02 0.47520561917E+02
 0.42061446480E+02 0.36646042335E+02 0.31306674643E+02 0.26153199494E+02 0.21355058835E+02
 0.17097090029E+02 0.13526450459E+02 0.10711462495E+02 0.86222242345E+01 0.71432775661E+01
 0.61004629415E+01 0.53587707814E+01 0.48704531032E+01 0.45950945003E+01 0.45070940297E+01
 0.45950945003E+01 0.48704531032E+01 0.53587707814E+01 0.61004629415E+01 0.71432775661E+01
 0.86222242345E+01 0.10711462495E+02 0.13526450459E+02 0.17097090029E+02 0.21355058835E+02
 0.26153199494E+02 0.31306674643E+02 0.36646042335E+02 0.42061446480E+02 0.47520561917E+02
 0.53054269005E+02 0.58709816077E+02 0.64490986389E+02 0.70298741349E+02 0.75900238194E+02
 0.80936328383E+02 0.84975462542E+02 0.87601695933E+02 0.87601695933E+02 0.85833029293E+02
 0.82504032566E+02 0.77977446018E+02 0.72680188382E+02 0.67008297883E+02 0.61255458292E+02
 0.55582652160E+02 0.50030629673E+02 0.44568604840E+02 0.39153382592E+02 0.33785933116E+02
 0.28540268083E+02 0.23562170449E+02 0.19034973828E+02 0.15130028531E+02 0.11956698601E+02
 0.95330974015E+01 0.77820855516E+01 0.65530777878E+01 0.56758531382E+01 0.50692741258E+01
 0.46943827542E+01 0.45161274821E+01 0.45161273536E+01 0.46943809199E+01 0.50692733164E+01
 0.56758523218E+01 0.65530799524E+01 0.77820797817E+01 0.95331046597E+01 0.11956711836E+02
 0.15130027017E+02 0.19034956201E+02 0.23562151673E+02 0.28540262316E+02 0.33785916213E+02
 0.39153413143E+02 0.44568561366E+02 0.50030709522E+02 0.55582571269E+02 0.61255508810E+02
 0.67008252602E+02 0.72680104974E+02 0.77977471997E+02 0.82504044968E+02 0.85832982911E+02
 0.87601698101E+02 0.84975462542E+02 0.82504032566E+02 0.78696109246E+02 0.73933834159E+02
 0.68613678592E+02 0.63065367558E+02 0.57502939020E+02 0.52017871788E+02 0.46611365526E+02
 0.41247005129E+02 0.35909502022E+02 0.30644384991E+02 0.25570889054E+02 0.20861009648E+02
 0.16696613730E+02 0.13217673929E+02 0.10484580529E+02 0.84607758286E+01 0.70275359120E+01
 0.60116974093E+01 0.52878769200E+01 0.48117504269E+01 0.45431887152E+01 0.44573980108E+01
 0.45431876433E+01 0.48117473248E+01 0.52878762438E+01 0.60116937078E+01 0.70275429200E+01
 0.84607798808E+01 0.10484574584E+02 0.13217651206E+02 0.16696625718E+02 0.20861022008E+02
 0.25570910609E+02 0.30644393898E+02 0.35909494129E+02 0.41247027449E+02 0.46611305565E+02
 0.52017900495E+02 0.57502870110E+02 0.63065354392E+02 0.68613737766E+02 0.73933796089E+02
 0.78696059692E+02 0.82504000826E+02 0.84975377115E+02 0.85832982911E+02 0.80936328383E+02
 0.77977446018E+02 0.73933834159E+02 0.69166100390E+02 0.64008142251E+02 0.58707455053E+02
 0.53400670178E+02 0.48127783199E+02 0.42873571714E+02 0.37622202952E+02 0.32402012714E+02
 0.27309201635E+02 0.22499733359E+02 0.18155626462E+02 0.14436567429E+02 0.11436657827E+02
 0.91586668340E+01 0.75167341412E+01 0.63562865353E+01 0.55207095155E+01 0.49437618234E+01
 0.45871289503E+01 0.44176059850E+01 0.44176080715E+01 0.45871228078E+01 0.49437613608E+01
 0.55207071021E+01 0.63562845632E+01 0.75167375909E+01 0.91586757068E+01 0.11436676641E+02
 0.14436570031E+02 0.18155604397E+02 0.22499687271E+02 0.27309175226E+02 0.32401995992E+02
 0.37622200848E+02 0.42873610294E+02 0.48127777490E+02 0.53400736207E+02 0.58707390171E+02
 0.64008132236E+02 0.69165970496E+02 0.73933821137E+02 0.77977445001E+02 0.80936329951E+02
 0.82504000826E+02 0.82504044968E+02 0.75900238194E+02 0.72680188382E+02 0.68613678592E+02
 0.64008142251E+02 0.59118397012E+02 0.54111555292E+02 0.49063272238E+02 0.43987418909E+02
 0.38879551587E+02 0.33763449549E+02 0.28719063121E+02 0.23886858148E+02 0.19442201651E+02
 0.15555248211E+02 0.12344122336E+02 0.98463284401E+01 0.80076206394E+01 0.67005396690E+01
 0.57591114017E+01 0.50865697637E+01 0.46448079231E+01 0.43955870677E+01 0.43158919480E+01
 0.43955852166E+01 0.46448043044E+01 0.50865676127E+01 0.57591128938E+01 0.67005442468E+01
 0.80076118235E+01 0.98463222835E+01 0.12344117895E+02 0.15555259259E+02 0.19442228166E+02
 0.23886903618E+02 0.28719076690E+02 0.33763482536E+02 0.38879525120E+02 0.43987419532E+02
 0.49063259457E+02 0.54111507959E+02 0.59118478981E+02 0.64008137871E+02 0.68613679198E+02
 0.72680151958E+02 0.75900148801E+02 0.77977445001E+02 0.78696059692E+02 0.77977471997E+02
 0.70298741349E+02 0.67008297883E+02 0.63065367558E+02 0.58707455053E+02 0.54111555292E+02
 0.49379643992E+02 0.44553717840E+02 0.39648216473E+02 0.34691749918E+02 0.29756865962E+02
 0.24971165388E+02 0.20501328114E+02 0.16519941805E+02 0.13161214083E+02 0.10489617948E+02
 0.84807968984E+01 0.70345038789E+01 0.59935786673E+01 0.52346578882E+01 0.47124687824E+01
 0.43892067508E+01 0.42356273838E+01 0.42356177303E+01 0.43892130223E+01 0.47124585178E+01
 0.52346593888E+01 0.59935733811E+01 0.70345237266E+01 0.84808023388E+01 0.10489623531E+02
 0.13161188384E+02 0.16519938677E+02 0.20501273154E+02 0.24971156205E+02 0.29756813239E+02
 0.34691803471E+02 0.39648222194E+02 0.44553781249E+02 0.49379694630E+02 0.54111520950E+02
 0.58707378364E+02 0.63065368434E+02 0.67008211490E+02 0.70298761344E+02 0.72680151958E+02
 0.73933821137E+02 0.73933796089E+02 0.72680104974E+02 0.64490986389E+02 0.61255458292E+02
 0.57502939020E+02 0.53400670178E+02 0.49063272238E+02 0.44553717840E+02 0.39906994050E+02
 0.35162088213E+02 0.30391767996E+02 0.25714554298E+02 0.21289180571E+02 0.17284823874E+02
 0.13845555590E+02 0.11054048967E+02 0.89129607908E+01 0.73458186875E+01 0.62149187475E+01
 0.53808148182E+01 0.47862229859E+01 0.43950704132E+01 0.41747475294E+01 0.41037087389E+01
 0.41747456446E+01 0.43950679956E+01 0.47862253239E+01 0.53808145011E+01 0.62149064165E+01
 0.73458158509E+01 0.89129586583E+01 0.11054081029E+02 0.13845562377E+02 0.17284854184E+02
 0.21289179444E+02 0.25714622461E+02 0.30391736049E+02 0.35162110433E+02 0.39906960202E+02
 0.44553665230E+02 0.49063325373E+02 0.53400696798E+02 0.57502935645E+02 0.61255492582E+02
 0.64491045961E+02 0.67008211490E+02 0.68613679198E+02 0.69165970496E+02 0.68613737766E+02
 0.67008252602E+02 0.58709816077E+02 0.55582652160E+02 0.52017871788E+02 0.48127783199E+02
 0.43987418909E+02 0.39648216473E+02 0.35162088213E+02 0.30605364121E+02 0.26092496385E+02
 0.21774384050E+02 0.17814922985E+02 0.14361337470E+02 0.11508465373E+02 0.92796594947E+01
 0.76202616044E+01 0.64136172358E+01 0.55177505696E+01 0.48610493807E+01 0.44100306677E+01
 0.41301697782E+01 0.39969483585E+01 0.39969620635E+01 0.41301561652E+01 0.44100392695E+01
 0.48610359566E+01 0.55177782045E+01 0.64136095111E+01 0.76202726367E+01 0.92796237531E+01
 0.11508463135E+02 0.14361289438E+02 0.17814950581E+02 0.21774303378E+02 0.26092520606E+02
 0.30605323487E+02 0.35162106763E+02 0.39648294244E+02 0.43987351490E+02 0.48127781281E+02
 0.52017922196E+02 0.55582566770E+02 0.58709887753E+02 0.61255492582E+02 0.63065368434E+02
 0.64008137871E+02 0.64008132236E+02 0.63065354392E+02 0.61255508810E+02 0.53054269005E+02
 0.50030629673E+02 0.46611365526E+02 0.42873571714E+02 0.38879551587E+02 0.34691749918E+02
 0.30391767996E+02 0.26092496385E+02 0.21938172090E+02 0.18085939121E+02 0.14681735138E+02
 0.11826711867E+02 0.95590602538E+01 0.78426734066E+01 0.65807042613E+01 0.56380383594E+01
 0.49318757701E+01 0.44303876609E+01 0.40990398015E+01 0.39121807358E+01 0.38514967817E+01
 0.39121815282E+01 0.40990412913E+01 0.44303893431E+01 0.49318578765E+01 0.56380386688E+01
 0.65806990516E+01 0.78427084665E+01 0.95590649326E+01 0.11826771908E+02 0.14681715215E+02
 0.18086008507E+02 0.21938136010E+02 0.26092551967E+02 0.30391757699E+02 0.34691679431E+02
 0.38879639607E+02 0.42873563989E+02 0.46611381721E+02 0.50030683953E+02 0.53054282782E+02
 0.55582566770E+02 0.57502935645E+02 0.58707378364E+02 0.59118478981E+02 0.58707390171E+02
 0.57502870110E+02 0.55582571269E+02 0.47520561917E+02 0.44568604840E+02 0.41247005129E+02
 0.37622202952E+02 0.33763449549E+02 0.29756865962E+02 0.25714554298E+02 0.21774384050E+02
 0.18085939121E+02 0.14790484302E+02 0.11990613113E+02 0.97341624395E+01 0.79995189958E+01
 0.67076633701E+01 0.57348415346E+01 0.49936636678E+01 0.44522634024E+01 0.40787573852E+01
 0.38461913348E+01 0.37348474020E+01 0.37348209066E+01 0.38462149401E+01 0.40787348042E+01
 0.44523021175E+01 0.49936399312E+01 0.57348614888E+01 0.67076070278E+01 0.79995335467E+01
 0.97340860663E+01 0.11990653309E+02 0.14790385516E+02 0.18086017536E+02 0.21774317716E+02
 0.25714568230E+02 0.29756912967E+02 0.33763364789E+02 0.37622203643E+02 0.41247000187E+02
 0.44568561167E+02 0.47520572695E+02 0.50030683953E+02 0.52017922196E+02 0.53400696798E+02
 0.54111520950E+02 0.54111507959E+02 0.53400736207E+02 0.52017900495E+02 0.50030709522E+02
 0.42061446480E+02 0.39153382592E+02 0.35909502022E+02 0.32402012714E+02 0.28719063121E+02
 0.24971165388E+02 0.21289180571E+02 0.17814922985E+02 0.14681735138E+02 0.11990613113E+02
 0.97936380488E+01 0.80806549090E+01 0.67869398340E+01 0.58028420578E+01 0.50414973853E+01
 0.44725288850E+01 0.40662490022E+01 0.37968811401E+01 0.36432283666E+01 0.35936775173E+01
 0.36432316747E+01 0.37968830801E+01 0.40662309613E+01 0.44725363984E+01 0.50414903963E+01
 0.58028839338E+01 0.67869315543E+01 0.80807314687E+01 0.97936028495E+01 0.11990719561E+02
 0.14681680851E+02 0.17814955478E+02 0.21289162995E+02 0.24971094649E+02 0.28719139964E+02
 0.32402003766E+02 0.35909469981E+02 0.39153403082E+02 0.42061429230E+02 0.44568561167E+02
 0.46611381721E+02 0.48127781281E+02 0.49063325373E+02 0.49379694630E+02 0.49063259457E+02
 0.48127777490E+02 0.46611305565E+02 0.44568561366E+02 0.36646042335E+02 0.33785933116E+02
 0.30644384991E+02 0.27309201635E+02 0.23886858148E+02 0.20501328114E+02 0.17284823874E+02
 0.14361337470E+02 0.11826711867E+02 0.97341624395E+01 0.80806549090E+01 0.68140990661E+01
 0.58378640086E+01 0.50719656771E+01 0.44877971449E+01 0.40594210735E+01 0.37617134496E+01
 0.35745611165E+01 0.34843182250E+01 0.34843566463E+01 0.35745247103E+01 0.37617694655E+01
 0.40593792965E+01 0.44878344825E+01 0.50718868516E+01 0.58378947810E+01 0.68139918317E+01
 0.80807080175E+01 0.97340494283E+01 0.11826779017E+02 0.14361291773E+02 0.17284864287E+02
 0.20501415650E+02 0.23886764169E+02 0.27309172432E+02 0.30644395718E+02 0.33785888845E+02
 0.36646055404E+02 0.39153403082E+02 0.41247000187E+02 0.42873563989E+02 0.43987351490E+02
 0.44553665230E+02 0.44553781249E+02 0.43987419532E+02 0.42873610294E+02 0.41247027449E+02
 0.39153413143E+02 0.31306674643E+02 0.28540268083E+02 0.25570889054E+02 0.22499733359E+02
 0.19442201651E+02 0.16519941805E+02 0.13845555590E+02 0.11508465373E+02 0.95590602538E+01
 0.79995189958E+01 0.67869398340E+01 0.58378640086E+01 0.50822439837E+01 0.44961004082E+01
 0.40560380440E+01 0.37394208957E+01 0.35266061491E+01 0.34044148948E+01 0.33643704472E+01
 0.34044136720E+01 0.35265879405E+01 0.37394361699E+01 0.40560282071E+01 0.44961569235E+01
 0.50822310031E+01 0.58379478844E+01 0.67869049933E+01 0.79996208467E+01 0.95590175632E+01
 0.11508492037E+02 0.13845581267E+02 0.16519787369E+02 0.19442308466E+02 0.22499747359E+02
 0.25570880381E+02 0.28540289835E+02 0.31306639289E+02 0.33785888845E+02 0.35909469981E+02
 0.37622203643E+02 0.38879639607E+02 0.39648294244E+02 0.39906960202E+02 0.39648222194E+02
 0.38879525120E+02 0.37622200848E+02 0.35909494129E+02 0.33785916213E+02 0.26153199494E+02
 0.23562170449E+02 0.20861009648E+02 0.18155626462E+02 0.15555248211E+02 0.13161214083E+02
 0.11054048967E+02 0.92796594947E+01 0.78426734066E+01 0.67076633701E+01 0.58028420578E+01
 0.50719656771E+01 0.44961004082E+01 0.40551848658E+01 0.37284837981E+01 0.34984111108E+01
 0.33518137095E+01 0.32805466837E+01 0.32805096624E+01 0.33518750799E+01 0.34983588894E+01
 0.37285253311E+01 0.40550970993E+01 0.44961358054E+01 0.50718552812E+01 0.58028802967E+01
 0.67075601102E+01 0.78426977443E+01 0.92796778432E+01 0.11053981394E+02 0.13161402042E+02
 0.15555155225E+02 0.18155635919E+02 0.20861003312E+02 0.23562136734E+02 0.26153166802E+02
 0.28540289835E+02 0.30644395718E+02 0.32402003766E+02 0.33763364789E+02 0.34691679431E+02
 0.35162106763E+02 0.35162110433E+02 0.34691803471E+02 0.33763482536E+02 0.32401995992E+02
 0.30644393898E+02 0.28540262316E+02 0.21355058835E+02 0.19034973828E+02 0.16696613730E+02
 0.14436567429E+02 0.12344122336E+02 0.10489617948E+02 0.89129607908E+01 0.76202616044E+01
 0.65807042613E+01 0.57348415346E+01 0.50414973853E+01 0.44877971449E+01 0.40560380440E+01
 0.37284837981E+01 0.34890051352E+01 0.33258456102E+01 0.32307539364E+01 0.31996080368E+01
 0.32307337968E+01 0.33258586724E+01 0.34890035711E+01 0.37285411859E+01 0.40560367157E+01
 0.44878771944E+01 0.50414936439E+01 0.57349060148E+01 0.65807376784E+01 0.76201835176E+01
 0.89130892227E+01 0.10489391657E+02 0.12344270914E+02 0.14436547341E+02 0.16696600779E+02
 0.19035021137E+02 0.21355116112E+02 0.23562136734E+02 0.25570880381E+02 0.27309172432E+02
 0.28719139964E+02 0.29756912967E+02 0.30391757699E+02 0.30605323487E+02 0.30391736049E+02
 0.29756813239E+02 0.28719076690E+02 0.27309175226E+02 0.25570910609E+02 0.23562151673E+02
 0.17097090029E+02 0.15130028531E+02 0.13217673929E+02 0.11436657827E+02 0.98463284401E+01
 0.84807968984E+01 0.73458186875E+01 0.64136172358E+01 0.56380383594E+01 0.49936636678E+01
 0.44725288850E+01 0.40594210735E+01 0.37394208957E+01 0.34984111108E+01 0.33258456102E+01
 0.32142779018E+01 0.31594825998E+01 0.31594763829E+01 0.32142832035E+01 0.33258225457E+01
 0.34983821305E+01 0.37393808886E+01 0.40593928737E+01 0.44724647124E+01 0.49936793355E+01
 0.56379017304E+01 0.64137960892E+01 0.73455798889E+01 0.84811233063E+01 0.98461408313E+01
 0.11436671885E+02 0.13217729677E+02 0.15130055279E+02 0.17096985520E+02 0.19035021137E+02
 0.20861003312E+02 0.22499747359E+02 0.23886764169E+02 0.24971094649E+02 0.25714568230E+02
 0.26092551967E+02 0.26092520606E+02 0.25714622461E+02 0.24971156205E+02 0.23886903618E+02
 0.22499687271E+02 0.20861022008E+02 0.19034956201E+02 0.13526450459E+02 0.11956698601E+02
 0.10484580529E+02 0.91586668340E+01 0.80076206394E+01 0.70345038789E+01 0.62149187475E+01
 0.55177505696E+01 0.49318757701E+01 0.44522634024E+01 0.40662490022E+01 0.37617134496E+01
 0.35266061491E+01 0.33518137095E+01 0.32307539364E+01 0.31594825998E+01 0.31359366048E+01
 0.31594970411E+01 0.32307753457E+01 0.33518385023E+01 0.35266588874E+01 0.37617332986E+01
 0.40663404082E+01 0.44522254051E+01 0.49320518034E+01 0.55175440780E+01 0.62151557226E+01
 0.70342235426E+01 0.80076817210E+01 0.91588120181E+01 0.10484446644E+02 0.11956726874E+02
 0.13526509875E+02 0.15130055279E+02 0.16696600779E+02 0.18155635919E+02 0.19442308466E+02
 0.20501415650E+02 0.21289162995E+02 0.21774317716E+02 0.21938136010E+02 0.21774303378E+02
 0.21289179444E+02 0.20501273154E+02 0.19442228166E+02 0.18155604397E+02 0.16696625718E+02
 0.15130027017E+02 0.10711462495E+02 0.95330974015E+01 0.84607758286E+01 0.75167341412E+01
 0.67005396690E+01 0.59935786673E+01 0.53808148182E+01 0.48610493807E+01 0.44303876609E+01
 0.40787573852E+01 0.37968811401E+01 0.35745611165E+01 0.34044148948E+01 0.32805466837E+01
 0.31996080368E+01 0.31594763829E+01 0.31594970411E+01 0.31995278204E+01 0.32805545848E+01
 0.34043242353E+01 0.35745788868E+01 0.37967455731E+01 0.40788349829E+01 0.44301743915E+01
 0.48612553578E+01 0.53806133158E+01 0.59937531989E+01 0.67006295688E+01 0.75164419054E+01
 0.84609935427E+01 0.95330422203E+01 0.10711439060E+02 0.11956726874E+02 0.13217729677E+02
 0.14436547341E+02 0.15555155225E+02 0.16519787369E+02 0.17284864287E+02 0.17814955478E+02
 0.18086017536E+02 0.18086008507E+02 0.17814950581E+02 0.17284854184E+02 0.16519938677E+02
 0.15555259259E+02 0.14436570031E+02 0.13217651206E+02 0.11956711836E+02 0.86222242345E+01
 0.77820855516E+01 0.70275359120E+01 0.63562865353E+01 0.57591114017E+01 0.52346578882E+01
 0.47862229859E+01 0.44100306677E+01 0.40990398015E+01 0.38461913348E+01 0.36432283666E+01
 0.34843182250E+01 0.33643704472E+01 0.32805096624E+01 0.32307337968E+01 0.32142832035E+01
 0.32307753457E+01 0.32805545848E+01 0.33644277776E+01 0.34843341062E+01 0.36433310370E+01
 0.38461760339E+01 0.40991859767E+01 0.44099426643E+01 0.47862579228E+01 0.52346777651E+01
 0.57587888034E+01 0.63567128636E+01 0.70273032758E+01 0.77820278883E+01 0.86224018974E+01
 0.95330422203E+01 0.10484446644E+02 0.11436671885E+02 0.12344270914E+02 0.13161402042E+02
 0.13845581267E+02 0.14361291773E+02 0.14681680851E+02 0.14790385516E+02 0.14681715215E+02
 0.14361289438E+02 0.13845562377E+02 0.13161188384E+02 0.12344117895E+02 0.11436676641E+02
 0.10484574584E+02 0.95331046597E+01 0.71432775661E+01 0.65530777878E+01 0.60116974093E+01
 0.55207095155E+01 0.50865697637E+01 0.47124687824E+01 0.43950704132E+01 0.41301697782E+01
 0.39121807358E+01 0.37348474020E+01 0.35936775173E+01 0.34843566463E+01 0.34044136720E+01
 0.33518750799E+01 0.33258586724E+01 0.33258225457E+01 0.33518385023E+01 0.34043242353E+01
 0.34843341062E+01 0.35935803671E+01 0.37348394273E+01 0.39120556011E+01 0.41302051691E+01
 0.43950895585E+01 0.47124037536E+01 0.50868579735E+01 0.55204435955E+01 0.60115868718E+01
 0.65534551899E+01 0.71429436486E+01 0.77820278883E+01 0.84609935427E+01 0.91588120181E+01
 0.98461408313E+01 0.10489391657E+02 0.11053981394E+02 0.11508492037E+02 0.11826779017E+02
 0.11990719561E+02 0.11990653309E+02 0.11826771908E+02 0.11508463135E+02 0.11054081029E+02
 0.10489623531E+02 0.98463222835E+01 0.91586757068E+01 0.84607798808E+01 0.77820797817E+01
 0.61004629415E+01 0.56758531382E+01 0.52878769200E+01 0.49437618234E+01 0.46448079231E+01
 0.43892067508E+01 0.41747475294E+01 0.39969483585E+01 0.38514967817E+01 0.37348209066E+01
 0.36432316747E+01 0.35745247103E+01 0.35265879405E+01 0.34983588894E+01 0.34890035711E+01
 0.34983821305E+01 0.35266588874E+01 0.35745788868E+01 0.36433310370E+01 0.37348394273E+01
 0.38516267959E+01 0.39969404359E+01 0.41747230796E+01 0.43892387849E+01 0.46445961143E+01
 0.49438489825E+01 0.52881310101E+01 0.56755016802E+01 0.61004671045E+01 0.65534551899E+01
 0.70273032758E+01 0.75164419054E+01 0.80076817210E+01 0.84811233063E+01 0.89130892227E+01
 0.92796778432E+01 0.95590175632E+01 0.97340494283E+01 0.97936028495E+01 0.97340860663E+01
 0.95590649326E+01 0.92796237531E+01 0.89129586583E+01 0.84808023388E+01 0.80076118235E+01
 0.75167375909E+01 0.70275429200E+01 0.65530799524E+01 0.53587707814E+01 0.50692741258E+01
 0.48117504269E+01 0.45871289503E+01 0.43955870677E+01 0.42356273838E+01 0.41037087389E+01
 0.39969620635E+01 0.39121815282E+01 0.38462149401E+01 0.37968830801E+01 0.37617694655E+01
 0.37394361699E+01 0.37285253311E+01 0.37285411859E+01 0.37393808886E+01 0.37617332986E+01
 0.37967455731E+01 0.38461760339E+01 0.39120556011E+01 0.39969404359E+01 0.41037420323E+01
 0.42356165083E+01 0.43957739160E+01 0.45870878052E+01 0.48115149497E+01 0.50694298559E+01
 0.53589731531E+01 0.56755016802E+01 0.60115868718E+01 0.63567128636E+01 0.67006295688E+01
 0.70342235426E+01 0.73455798889E+01 0.76201835176E+01 0.78426977443E+01 0.79996208467E+01
 0.80807080175E+01 0.80807314687E+01 0.79995335467E+01 0.78427084665E+01 0.76202726367E+01
 0.73458158509E+01 0.70345237266E+01 0.67005442468E+01 0.63562845632E+01 0.60116937078E+01
 0.56758523218E+01 0.48704531032E+01 0.46943827542E+01 0.45431887152E+01 0.44176059850E+01
 0.43158919480E+01 0.42356177303E+01 0.41747456446E+01 0.41301561652E+01 0.40990412913E+01
 0.40787348042E+01 0.40662309613E+01 0.40593792965E+01 0.40560282071E+01 0.40550970993E+01
 0.40560367157E+01 0.40593928737E+01 0.40663404082E+01 0.40788349829E+01 0.40991859767E+01
 0.41302051691E+01 0.41747230796E+01 0.42356165083E+01 0.43157190449E+01 0.44176265558E+01
 0.45434131690E+01 0.46943115913E+01 0.48702396359E+01 0.50694298559E+01 0.52881310101E+01
 0.55204435955E+01 0.57587888034E+01 0.59937531989E+01 0.62151557226E+01 0.64137960892E+01
 0.65807376784E+01 0.67075601102E+01 0.67869049933E+01 0.68139918317E+01 0.67869315543E+01
 0.67076070278E+01 0.65806990516E+01 0.64136095111E+01 0.62149064165E+01 0.59935733811E+01
 0.57591128938E+01 0.55207071021E+01 0.52878762438E+01 0.50692733164E+01 0.45950945003E+01
 0.45161274821E+01 0.44573980108E+01 0.44176080715E+01 0.43955852166E+01 0.43892130223E+01
 0.43950679956E+01 0.44100392695E+01 0.44303893431E+01 0.44523021175E+01 0.44725363984E+01
 0.44878344825E+01 0.44961569235E+01 0.44961358054E+01 0.44878771944E+01 0.44724647124E+01
 0.44522254051E+01 0.44301743915E+01 0.44099426643E+01 0.43950895585E+01 0.43892387849E+01
 0.43957739160E+01 0.44176265558E+01 0.44571885147E+01 0.45161605120E+01 0.45953092858E+01
 0.46943115913E+01 0.48115149497E+01 0.49438489825E+01 0.50868579735E+01 0.52346777651E+01
 0.53806133158E+01 0.55175440780E+01 0.56379017304E+01 0.57349060148E+01 0.58028802967E+01
 0.58379478844E+01 0.58378947810E+01 0.58028839338E+01 0.57348614888E+01 0.56380386688E+01
 0.55177782045E+01 0.53808145011E+01 0.52346593888E+01 0.50865676127E+01 0.49437613608E+01
 0.48117473248E+01 0.46943809199E+01 0.45070940297E+01 0.45161273536E+01 0.45431876433E+01
 0.45871228078E+01 0.46448043044E+01 0.47124585178E+01 0.47862253239E+01 0.48610359566E+01
 0.49318578765E+01 0.49936399312E+01 0.50414903963E+01 0.50718868516E+01 0.50822310031E+01
 0.50718552812E+01 0.50414936439E+01 0.49936793355E+01 0.49320518034E+01 0.48612553578E+01
 0.47862579228E+01 0.47124037536E+01 0.46445961143E+01 0.45870878052E+01 0.45434131690E+01
 0.45161605120E+01 0.45068945448E+01 0.45161605120E+01 0.45434131690E+01 0.45870878052E+01
 0.46445961143E+01 0.47124037536E+01 0.47862579228E+01 0.48612553578E+01 0.49320518034E+01
 0.49936793355E+01 0.50414936439E+01 0.50718552812E+01 0.50822310031E+01 0.50718868516E+01
 0.50414903963E+01 0.49936399312E+01 0.49318578765E+01 0.48610359566E+01 0.47862253239E+01
 0.47124585178E+01 0.46448043044E+01 0.45871228078E+01 0.45431876433E+01 0.45161273536E+01
 0.45950945003E+01 0.46943809199E+01 0.48117473248E+01 0.49437613608E+01 0.50865676127E+01
 0.52346593888E+01 0.53808145011E+01 0.55177782045E+01 0.56380386688E+01 0.57348614888E+01
 0.58028839338E+01 0.58378947810E+01 0.58379478844E+01 0.58028802967E+01 0.57349060148E+01
 0.56379017304E+01 0.55175440780E+01 0.53806133158E+01 0.52346777651E+01 0.50868579735E+01
 0.49438489825E+01 0.48115149497E+01 0.46943115913E+01 0.45953092858E+01 0.45161605120E+01
 0.44571885147E+01 0.44176265558E+01 0.43957739160E+01 0.43892387849E+01 0.43950895585E+01
 0.44099426643E+01 0.44301743915E+01 0.44522254051E+01 0.44724647124E+01 0.44878771944E+01
 0.44961358054E+01 0.44961569235E+01 0.44878344825E+01 0.44725363984E+01 0.44523021175E+01
 0.44303893431E+01 0.44100392695E+01 0.43950679956E+01 0.43892130223E+01 0.43955852166E+01
 0.44176080715E+01 0.44573980108E+01 0.45161274821E+01 0.48704531032E+01 0.50692733164E+01
 0.52878762438E+01 0.55207071021E+01 0.57591128938E+01 0.59935733811E+01 0.62149064165E+01
 0.64136095111E+01 0.65806990516E+01 0.67076070278E+01 0.67869315543E+01 0.68139918317E+01
 0.67869049933E+01 0.67075601102E+01 0.65807376784E+01 0.64137960892E+01 0.62151557226E+01
 0.59937531989E+01 0.57587888034E+01 0.55204435955E+01 0.52881310101E+01 0.50694298559E+01
 0.48702396359E+01 0.46943115913E+01 0.45434131690E+01 0.44176265558E+01 0.43157190449E+01
 0.42356165083E+01 0.41747230796E+01 0.41302051691E+01 0.40991859767E+01 0.40788349829E+01
 0.40663404082E+01 0.40593928737E+01 0.40560367157E+01 0.40550970993E+01 0.40560282071E+01
 0.40593792965E+01 0.40662309613E+01 0.40787348042E+01 0.40990412913E+01 0.41301561652E+01
 0.41747456446E+01 0.42356177303E+01 0.43158919480E+01 0.44176059850E+01 0.45431887152E+01
 0.46943827542E+01 0.53587707814E+01 0.56758523218E+01 0.60116937078E+01 0.63562845632E+01
 0.67005442468E+01 0.70345237266E+01 0.73458158509E+01 0.76202726367E+01 0.78427084665E+01
 0.79995335467E+01 0.80807314687E+01 0.80807080175E+01 0.79996208467E+01 0.78426977443E+01
 0.76201835176E+01 0.73455798889E+01 0.70342235426E+01 0.67006295688E+01 0.63567128636E+01
 0.60115868718E+01 0.56755016802E+01 0.53589731531E+01 0.50694298559E+01 0.48115149497E+01
 0.45870878052E+01 0.43957739160E+01 0.42356165083E+01 0.41037420323E+01 0.39969404359E+01
 0.39120556011E+01 0.38461760339E+01 0.37967455731E+01 0.37617332986E+01 0.37393808886E+01
 0.37285411859E+01 0.37285253311E+01 0.37394361699E+01 0.37617694655E+01 0.37968830801E+01
 0.38462149401E+01 0.39121815282E+01 0.39969620635E+01 0.41037087389E+01 0.42356273838E+01
 0.43955870677E+01 0.45871289503E+01 0.48117504269E+01 0.50692741258E+01 0.61004629415E+01
 0.65530799524E+01 0.70275429200E+01 0.75167375909E+01 0.80076118235E+01 0.84808023388E+01
 0.89129586583E+01 0.92796237531E+01 0.95590649326E+01 0.97340860663E+01 0.97936028495E+01
 0.97340494283E+01 0.95590175632E+01 0.92796778432E+01 0.89130892227E+01 0.84811233063E+01
 0.80076817210E+01 0.75164419054E+01 0.70273032758E+01 0.65534551899E+01 0.61004671045E+01
 0.56755016802E+01 0.52881310101E+01 0.49438489825E+01 0.46445961143E+01 0.43892387849E+01
 0.41747230796E+01 0.39969404359E+01 0.38516267959E+01 0.37348394273E+01 0.36433310370E+01
 0.35745788868E+01 0.35266588874E+01 0.34983821305E+01 0.34890035711E+01 0.34983588894E+01
 0.35265879405E+01 0.35745247103E+01 0.36432316747E+01 0.37348209066E+01 0.38514967817E+01
 0.39969483585E+01 0.41747475294E+01 0.43892067508E+01 0.46448079231E+01 0.49437618234E+01
 0.52878769200E+01 0.56758531382E+01 0.71432775661E+01 0.77820797817E+01 0.84607798808E+01
 0.91586757068E+01 0.98463222835E+01 0.10489623531E+02 0.11054081029E+02 0.11508463135E+02
 0.11826771908E+02 0.11990653309E+02 0.11990719561E+02 0.11826779017E+02 0.11508492037E+02
 0.11053981394E+02 0.10489391657E+02 0.98461408313E+01 0.91588120181E+01 0.84609935427E+01
 0.77820278883E+01 0.71429436486E+01 0.65534551899E+01 0.60115868718E+01 0.55204435955E+01
 0.50868579735E+01 0.47124037536E+01 0.43950895585E+01 0.41302051691E+01 0.39120556011E+01
 0.37348394273E+01 0.35935803671E+01 0.34843341062E+01 0.34043242353E+01 0.33518385023E+01
 0.33258225457E+01 0.33258586724E+01 0.33518750799E+01 0.34044136720E+01 0.34843566463E+01
 0.35936775173E+01 0.37348474020E+01 0.39121807358E+01 0.41301697782E+01 0.43950704132E+01
 0.47124687824E+01 0.50865697637E+01 0.55207095155E+01 0.60116974093E+01 0.65530777878E+01
 0.86222242345E+01 0.95331046597E+01 0.10484574584E+02 0.11436676641E+02 0.12344117895E+02
 0.13161188384E+02 0.13845562377E+02 0.14361289438E+02 0.14681715215E+02 0.14790385516E+02
 0.14681680851E+02 0.14361291773E+02 0.13845581267E+02 0.13161402042E+02 0.12344270914E+02
 0.11436671885E+02 0.10484446644E+02 0.95330422203E+01 0.86224018974E+01 0.77820278883E+01
 0.70273032758E+01 0.63567128636E+01 0.57587888034E+01 0.52346777651E+01 0.47862579228E+01
 0.44099426643E+01 0.40991859767E+01 0.38461760339E+01 0.36433310370E+01 0.34843341062E+01
 0.33644277776E+01 0.32805545848E+01 0.32307753457E+01 0.32142832035E+01 0.32307337968E+01
 0.32805096624E+01 0.33643704472E+01 0.34843182250E+01 0.36432283666E+01 0.38461913348E+01
 0.40990398015E+01 0.44100306677E+01 0.47862229859E+01 0.52346578882E+01 0.57591114017E+01
 0.63562865353E+01 0.70275359120E+01 0.77820855516E+01 0.10711462495E+02 0.11956711836E+02
 0.13217651206E+02 0.14436570031E+02 0.15555259259E+02 0.16519938677E+02 0.17284854184E+02
 0.17814950581E+02 0.18086008507E+02 0.18086017536E+02 0.17814955478E+02 0.17284864287E+02
 0.16519787369E+02 0.15555155225E+02 0.14436547341E+02 0.13217729677E+02 0.11956726874E+02
 0.10711439060E+02 0.95330422203E+01 0.84609935427E+01 0.75164419054E+01 0.67006295688E+01
 0.59937531989E+01 0.53806133158E+01 0.48612553578E+01 0.44301743915E+01 0.40788349829E+01
 0.37967455731E+01 0.35745788868E+01 0.34043242353E+01 0.32805545848E+01 0.31995278204E+01
 0.31594970411E+01 0.31594763829E+01 0.31996080368E+01 0.32805466837E+01 0.34044148948E+01
 0.35745611165E+01 0.37968811401E+01 0.40787573852E+01 0.44303876609E+01 0.48610493808E+01
 0.53808148182E+01 0.59935786673E+01 0.67005396690E+01 0.75167341412E+01 0.84607758286E+01
 0.95330974015E+01 0.13526450459E+02 0.15130027017E+02 0.16696625718E+02 0.18155604397E+02
 0.19442228166E+02 0.20501273154E+02 0.21289179444E+02 0.21774303378E+02 0.21938136010E+02
 0.21774317716E+02 0.21289162995E+02 0.20501415650E+02 0.19442308466E+02 0.18155635919E+02
 0.16696600779E+02 0.15130055279E+02 0.13526509875E+02 0.11956726874E+02 0.10484446644E+02
 0.91588120181E+01 0.80076817210E+01 0.70342235426E+01 0.62151557226E+01 0.55175440780E+01
 0.49320518034E+01 0.44522254051E+01 0.40663404082E+01 0.37617332986E+01 0.35266588874E+01
 0.33518385023E+01 0.32307753457E+01 0.31594970411E+01 0.31359366048E+01 0.31594825998E+01
 0.32307539364E+01 0.33518137095E+01 0.35266061491E+01 0.37617134496E+01 0.40662490022E+01
 0.44522634024E+01 0.49318757701E+01 0.55177505696E+01 0.62149187475E+01 0.70345038789E+01
 0.80076206394E+01 0.91586668340E+01 0.10484580529E+02 0.11956698601E+02 0.17097090029E+02
 0.19034956201E+02 0.20861022008E+02 0.22499687271E+02 0.23886903618E+02 0.24971156205E+02
 0.25714622461E+02 0.26092520606E+02 0.26092551967E+02 0.25714568230E+02 0.24971094649E+02
 0.23886764169E+02 0.22499747359E+02 0.20861003312E+02 0.19035021137E+02 0.17096985520E+02
 0.15130055279E+02 0.13217729677E+02 0.11436671885E+02 0.98461408313E+01 0.84811233063E+01
 0.73455798889E+01 0.64137960892E+01 0.56379017304E+01 0.49936793355E+01 0.44724647124E+01
 0.40593928737E+01 0.37393808886E+01 0.34983821305E+01 0.33258225457E+01 0.32142832035E+01
 0.31594763829E+01 0.31594825998E+01 0.32142779018E+01 0.33258456102E+01 0.34984111108E+01
 0.37394208957E+01 0.40594210735E+01 0.44725288850E+01 0.49936636678E+01 0.56380383594E+01
 0.64136172358E+01 0.73458186875E+01 0.84807968984E+01 0.98463284401E+01 0.11436657827E+02