   1   1   1   0
  0.1814474E+02  0.2949546E-09  0.2949546E-09  0.2949546E-09  0.5000000E-15
  1.000000000000000E-004
  CAR 
 Au                                      
     47.36000887     -3.03818379  301     10.47283907      1.00000000
     -3.038  0.0000E+00  0.0000E+00
     -2.870  0.0000E+00  0.0000E+00
     -2.702  0.0000E+00  0.0000E+00
     -2.534  0.0000E+00  0.0000E+00
     -2.366  0.0000E+00  0.0000E+00
     -2.198  0.0000E+00  0.0000E+00
     -2.030  0.0000E+00  0.0000E+00
     -1.862  0.0000E+00  0.0000E+00
     -1.694  0.0000E+00  0.0000E+00
     -1.526  0.0000E+00  0.0000E+00
     -1.358  0.0000E+00  0.0000E+00
     -1.190  0.0000E+00  0.0000E+00
     -1.022  0.0000E+00  0.0000E+00
     -0.854  0.0000E+00  0.0000E+00
     -0.686  0.2381E-01  0.5200E-01
     -0.518  0.2381E-01  0.9600E-01
     -0.350 -0.1334E-54  0.1200E+00
     -0.182  0.2445E-01  0.1481E+00
     -0.014 -0.2341E-18  0.1640E+00
      0.154  0.0000E+00  0.1840E+00
      0.322 -0.2202-316  0.2000E+00
      0.490  0.2403E-01  0.2160E+00
      0.658  0.0000E+00  0.2360E+00
      0.826  0.0000E+00  0.2520E+00
      0.994 -0.4544-195  0.2640E+00
      1.162  0.0000E+00  0.2800E+00
      1.330 -0.2879-173  0.2960E+00
      1.498  0.1219E-01  0.3180E+00
      1.666  0.2381E-01  0.3520E+00
      1.834 -0.2261E-49  0.5240E+00
      2.002  0.2304E-01  0.6959E+00
      2.170  0.4634E-01  0.9078E+00
      2.338  0.4294E-01  0.1183E+01
      2.506 -0.7534E-05  0.1388E+01
      2.674  0.1804E+00  0.1834E+01
      2.842  0.6499E-01  0.2055E+01
      3.010  0.4762E-01  0.2380E+01
      3.178  0.1192E+00  0.2708E+01
      3.346  0.7267E-01  0.2900E+01
      3.514 -0.1924E-28  0.3072E+01
      3.682  0.9489E-01  0.3344E+01
      3.850  0.9586E-01  0.3624E+01
      4.018  0.4532E-01  0.3932E+01
      4.186  0.9578E-01  0.4656E+01
      4.354  0.1282E+00  0.5090E+01
      4.522  0.1113E+00  0.5415E+01
      4.690 -0.3874E-22  0.5632E+01
      4.858  0.1835E+00  0.5899E+01
      5.026  0.9475E-01  0.6184E+01
      5.194  0.6145E-02  0.6353E+01
      5.362  0.1015E+00  0.6705E+01
      5.530  0.4762E-01  0.7300E+01
      5.698  0.9657E-01  0.7676E+01
      5.865  0.1191E+00  0.7924E+01
      6.033  0.2815E-01  0.8093E+01
      6.201  0.3477E-01  0.8286E+01
      6.369  0.1459E+00  0.8593E+01
      6.537  0.1199E+00  0.9564E+01
      6.705  0.9648E-01  0.9816E+01
      6.873 -0.2329E-16  0.1043E+02
      7.041 -0.3338E-03  0.1044E+02
      7.209 -0.2960E-14  0.1045E+02
      7.377  0.2381E-01  0.1046E+02
      7.545  0.2381E-01  0.1047E+02
      7.713  0.0000E+00  0.1048E+02
      7.881 -0.3387E-44  0.1053E+02
      8.049  0.4762E-01  0.1057E+02
      8.217 -0.2316E-39  0.1058E+02
      8.385 -0.3654-147  0.1061E+02
      8.553 -0.2012E-89  0.1063E+02
      8.721  0.0000E+00  0.1066E+02
      8.889 -0.4027E-32  0.1068E+02
      9.057 -0.2195E-10  0.1069E+02
      9.225  0.0000E+00  0.1072E+02
      9.393  0.0000E+00  0.1074E+02
      9.561 -0.6144-249  0.1076E+02
      9.729  0.4762E-01  0.1083E+02
      9.897  0.2381E-01  0.1088E+02
     10.065 -0.2703-319  0.1091E+02
     10.233  0.0000E+00  0.1095E+02
     10.401 -0.9470E-04  0.1098E+02
     10.569  0.0000E+00  0.1102E+02
     10.737 -0.2469E-14  0.1105E+02
     10.905  0.4762E-01  0.1109E+02
     11.073 -0.1283E-12  0.1112E+02
     11.241  0.7136E-01  0.1148E+02
     11.409 -0.3491E-03  0.1160E+02
     11.577 -0.4112E-26  0.1167E+02
     11.745 -0.8607E-03  0.1174E+02
     11.913  0.2381E-01  0.1180E+02
     12.081 -0.2338E-64  0.1185E+02
     12.249  0.2230E-01  0.1205E+02
     12.417 -0.5882E-68  0.1217E+02
     12.585  0.1875E-02  0.1226E+02
     12.753 -0.4815E-13  0.1238E+02
     12.921 -0.3894E-11  0.1255E+02
     13.089  0.9524E-01  0.1276E+02
     13.257 -0.1534E-02  0.1290E+02
     13.425  0.2381E-01  0.1300E+02
     13.593 -0.1565E-11  0.1310E+02
     13.761 -0.2073E-25  0.1327E+02
     13.929 -0.6836E-13  0.1332E+02
     14.097 -0.1723E-90  0.1336E+02
     14.265 -0.2952E-40  0.1340E+02
     14.433 -0.4581E-30  0.1344E+02
     14.601 -0.2800-318  0.1352E+02
     14.769 -0.2241E-13  0.1355E+02
     14.937  0.7219E-01  0.1360E+02
     15.105  0.5718E-01  0.1363E+02
     15.273  0.9601E-01  0.1369E+02
     15.441  0.2351E-01  0.1378E+02
     15.609 -0.6332E-27  0.1408E+02
     15.777 -0.7856E-03  0.1412E+02
     15.945  0.2387E-01  0.1416E+02
     16.113 -0.9902-103  0.1420E+02
     16.281  0.2381E-01  0.1424E+02
     16.449  0.2381E-01  0.1428E+02
     16.617 -0.1280E-68  0.1431E+02
     16.785  0.4846E-01  0.1434E+02
     16.953 -0.6740E-04  0.1437E+02
     17.121 -0.6669E-59  0.1440E+02
     17.289 -0.6520-208  0.1444E+02
     17.457 -0.1582E-04  0.1446E+02
     17.625  0.2381E-01  0.1464E+02
     17.793  0.7147E-01  0.1475E+02
     17.961 -0.9220E-08  0.1483E+02
     18.129  0.4762E-01  0.1494E+02
     18.297  0.2381E+00  0.1512E+02
     18.465  0.4762E-01  0.1522E+02
     18.633  0.2381E-01  0.1529E+02
     18.801  0.2381E-01  0.1535E+02
     18.969  0.2381E-01  0.1540E+02
     19.137  0.2381E-01  0.1545E+02
     19.305  0.7085E-01  0.1550E+02
     19.473 -0.2690E-96  0.1555E+02
     19.641 -0.7267E-04  0.1559E+02
     19.809  0.1769E-02  0.1564E+02
     19.977 -0.8590E-19  0.1569E+02
     20.145  0.0000E+00  0.1574E+02
     20.313  0.2275E-01  0.1579E+02
     20.481  0.0000E+00  0.1585E+02
     20.649  0.4762E-01  0.1591E+02
     20.817  0.0000E+00  0.1598E+02
     20.985  0.0000E+00  0.1603E+02
     21.153  0.2381E-01  0.1606E+02
     21.321 -0.3315-300  0.1610E+02
     21.489  0.4772E-01  0.1614E+02
     21.657  0.0000E+00  0.1618E+02
     21.825  0.1205E-02  0.1622E+02
     21.993  0.0000E+00  0.1626E+02
     22.161 -0.1343E-67  0.1630E+02
     22.329  0.1286E-01  0.1633E+02
     22.497  0.2622E+00  0.1644E+02
     22.665  0.0000E+00  0.1663E+02
     22.833  0.0000E+00  0.1667E+02
     23.001 -0.1013E-15  0.1670E+02
     23.169 -0.1910E-52  0.1680E+02
     23.337 -0.2461E-18  0.1689E+02
     23.505  0.4762E-01  0.1696E+02
     23.673 -0.2139E-08  0.1701E+02
     23.841 -0.8956-152  0.1711E+02
     24.009  0.2361E-01  0.1718E+02
     24.177  0.0000E+00  0.1730E+02
     24.345  0.4762E-01  0.1738E+02
     24.513  0.2381E-01  0.1748E+02
     24.681 -0.2914E-03  0.1758E+02
     24.849  0.7143E-01  0.1774E+02
     25.017  0.3012E-01  0.1793E+02
     25.185  0.3389E-01  0.1819E+02
     25.353  0.9243E-01  0.1832E+02
     25.521 -0.1924E-03  0.1845E+02
     25.689 -0.2732E-12  0.1858E+02
     25.857 -0.3390E-22  0.1872E+02
     26.025 -0.7295E-51  0.1879E+02
     26.193 -0.2450-178  0.1888E+02
     26.361  0.4762E-01  0.1896E+02
     26.529  0.7432E-01  0.1904E+02
     26.697  0.2619E+00  0.1922E+02
     26.865  0.2379E-01  0.1933E+02
     27.033 -0.2044E-11  0.1939E+02
     27.201  0.7863E-01  0.1947E+02
     27.369  0.2381E-01  0.1954E+02
     27.537  0.2371E-01  0.1970E+02
     27.705  0.2535E-01  0.1980E+02
     27.873  0.7144E-01  0.1991E+02
     28.041  0.2460E-01  0.1996E+02
     28.209  0.7160E-01  0.2000E+02
     28.377 -0.5661E-79  0.2004E+02
     28.545 -0.1133E-35  0.2008E+02
     28.713  0.4846E-01  0.2013E+02
     28.881 -0.8503E-63  0.2016E+02
     29.049 -0.5834-187  0.2020E+02
     29.217 -0.4194E-03  0.2024E+02
     29.385  0.0000E+00  0.2028E+02
     29.553  0.2380E-01  0.2032E+02
     29.721  0.7045E-03  0.2036E+02
     29.889 -0.3792E-19  0.2042E+02
     30.057 -0.2614E-82  0.2046E+02
     30.225 -0.1791-125  0.2052E+02
     30.393  0.0000E+00  0.2057E+02
     30.561 -0.5663E-03  0.2061E+02
     30.729 -0.5587E-10  0.2070E+02
     30.897  0.2457E-01  0.2077E+02
     31.065  0.4762E-01  0.2088E+02
     31.233  0.2381E-01  0.2097E+02
     31.401  0.2664E-01  0.2106E+02
     31.569  0.4764E-01  0.2127E+02
     31.737  0.2846E-01  0.2148E+02
     31.905  0.4609E-01  0.2167E+02
     32.073  0.7149E-01  0.2188E+02
     32.241 -0.3280E-04  0.2198E+02
     32.409  0.4593E-01  0.2207E+02
     32.577  0.4762E-01  0.2236E+02
     32.745  0.8654E-01  0.2258E+02
     32.913 -0.8763E-85  0.2275E+02
     33.081  0.8716E-01  0.2292E+02
     33.249 -0.5361E-21  0.2304E+02
     33.417  0.1080E+00  0.2322E+02
     33.585  0.7146E-01  0.2338E+02
     33.752  0.2381E-01  0.2356E+02
     33.920  0.7304E-01  0.2372E+02
     34.088  0.1439E+00  0.2393E+02
     34.256  0.2668E-01  0.2405E+02
     34.424 -0.1303E-80  0.2417E+02
     34.592  0.2381E-01  0.2427E+02
     34.760  0.9524E-01  0.2440E+02
     34.928  0.2413E-01  0.2452E+02
     35.096  0.7143E-01  0.2474E+02
     35.264 -0.1109E-56  0.2493E+02
     35.432  0.5985E-01  0.2519E+02
     35.600  0.4762E-01  0.2540E+02
     35.768  0.7143E-01  0.2554E+02
     35.936 -0.4253E-26  0.2562E+02
     36.104  0.2595E-01  0.2568E+02
     36.272  0.7154E-01  0.2578E+02
     36.440  0.2381E-01  0.2583E+02
     36.608 -0.2067E-87  0.2590E+02
     36.776 -0.5517E-32  0.2600E+02
     36.944 -0.3950E-74  0.2610E+02
     37.112  0.4876E-01  0.2618E+02
     37.280  0.3176E-03  0.2626E+02
     37.448  0.1098E-01  0.2634E+02
     37.616  0.9524E-01  0.2645E+02
     37.784  0.4843E-01  0.2657E+02
     37.952 -0.7402E-41  0.2668E+02
     38.120  0.4762E-01  0.2680E+02
     38.288  0.2298E-01  0.2690E+02
     38.456  0.7326E-03  0.2701E+02
     38.624  0.1191E+00  0.2715E+02
     38.792  0.6429E-01  0.2726E+02
     38.960 -0.5055E-03  0.2738E+02
     39.128 -0.1066E-02  0.2753E+02
     39.296 -0.1664E-07  0.2770E+02
     39.464  0.8568E-01  0.2794E+02
     39.632 -0.6797E-46  0.2812E+02
     39.800  0.4762E-01  0.2824E+02
     39.968 -0.5630E-25  0.2844E+02
     40.136  0.7227E-01  0.2868E+02
     40.304 -0.1081E-06  0.2884E+02
     40.472  0.2381E-01  0.2906E+02
     40.640  0.9466E-01  0.2916E+02
     40.808  0.5092E-01  0.2957E+02
     40.976  0.4736E-01  0.2970E+02
     41.144  0.3013E-01  0.2980E+02
     41.312 -0.5339E-03  0.2991E+02
     41.480  0.3714E-01  0.3003E+02
     41.648  0.5076E-01  0.3022E+02
     41.816  0.1424E+00  0.3052E+02
     41.984  0.2388E-01  0.3072E+02
     42.152  0.2039E-01  0.3093E+02
     42.320  0.7143E-01  0.3106E+02
     42.488  0.2380E-01  0.3123E+02
     42.656 -0.4074E-32  0.3129E+02
     42.824 -0.1670E-63  0.3139E+02
     42.992 -0.1567E-16  0.3144E+02
     43.160  0.0000E+00  0.3150E+02
     43.328  0.2381E-01  0.3155E+02
     43.496  0.4762E-01  0.3159E+02
     43.664  0.1732E-02  0.3164E+02
     43.832 -0.2992E-80  0.3168E+02
     44.000 -0.2675E-34  0.3179E+02
     44.168  0.1101E-01  0.3187E+02
     44.336  0.4681E-01  0.3192E+02
     44.504 -0.1569E-50  0.3197E+02
     44.672  0.0000E+00  0.3198E+02
     44.840 -0.8353-307  0.3198E+02
     45.008  0.0000E+00  0.3199E+02
     45.176  0.0000E+00  0.3200E+02
     45.344  0.0000E+00  0.3200E+02
     45.512  0.0000E+00  0.3200E+02
     45.680  0.0000E+00  0.3200E+02
     45.848  0.0000E+00  0.3200E+02
     46.016  0.0000E+00  0.3200E+02
     46.184  0.0000E+00  0.3200E+02
     46.352  0.0000E+00  0.3200E+02
     46.520  0.0000E+00  0.3200E+02
     46.688  0.0000E+00  0.3200E+02
     46.856  0.0000E+00  0.3200E+02
     47.024  0.0000E+00  0.3200E+02
     47.192  0.0000E+00  0.3200E+02
     47.360  0.0000E+00  0.3200E+02
     47.36000887     -3.03818379  301     10.47283907      1.00000000
     -3.038  0.0000E+00  0.0000E+00  0.0000E+00  0.0000E+00  0.0000E+00  0.0000E+00  0.0000E+00  0.0000E+00  0.0000E+00
     -2.870  0.0000E+00  0.0000E+00  0.0000E+00  0.0000E+00  0.0000E+00  0.0000E+00  0.0000E+00  0.0000E+00  0.0000E+00
     -2.702  0.0000E+00  0.0000E+00  0.0000E+00  0.0000E+00  0.0000E+00  0.0000E+00  0.0000E+00  0.0000E+00  0.0000E+00
     -2.534  0.0000E+00  0.0000E+00  0.0000E+00  0.0000E+00  0.0000E+00  0.0000E+00  0.0000E+00  0.0000E+00  0.0000E+00
     -2.366  0.0000E+00  0.0000E+00  0.0000E+00  0.0000E+00  0.0000E+00  0.0000E+00  0.0000E+00  0.0000E+00  0.0000E+00
     -2.198  0.0000E+00  0.0000E+00  0.0000E+00  0.0000E+00  0.0000E+00  0.0000E+00  0.0000E+00  0.0000E+00  0.0000E+00
     -2.030  0.0000E+00  0.0000E+00  0.0000E+00  0.0000E+00  0.0000E+00  0.0000E+00  0.0000E+00  0.0000E+00  0.0000E+00
     -1.862  0.0000E+00  0.0000E+00  0.0000E+00  0.0000E+00  0.0000E+00  0.0000E+00  0.0000E+00  0.0000E+00  0.0000E+00
     -1.694  0.0000E+00  0.0000E+00  0.0000E+00  0.0000E+00  0.0000E+00  0.0000E+00  0.0000E+00  0.0000E+00  0.0000E+00
     -1.526  0.0000E+00  0.0000E+00  0.0000E+00  0.0000E+00  0.0000E+00  0.0000E+00  0.0000E+00  0.0000E+00  0.0000E+00
     -1.358  0.0000E+00  0.0000E+00  0.0000E+00  0.0000E+00  0.0000E+00  0.0000E+00  0.0000E+00  0.0000E+00  0.0000E+00
     -1.190  0.0000E+00  0.0000E+00  0.0000E+00  0.0000E+00  0.0000E+00  0.0000E+00  0.0000E+00  0.0000E+00  0.0000E+00
     -1.022  0.0000E+00  0.0000E+00  0.0000E+00  0.0000E+00  0.0000E+00  0.0000E+00  0.0000E+00  0.0000E+00  0.0000E+00
     -0.854  0.0000E+00  0.0000E+00  0.0000E+00  0.0000E+00  0.0000E+00  0.0000E+00  0.0000E+00  0.0000E+00  0.0000E+00
     -0.686  0.1360E-01  0.1631E-04  0.1631E-04  0.1631E-04  0.3120E-06  0.3120E-06  0.6673E-19  0.3120E-06  0.6854E-20
     -0.518  0.1343E-01  0.1991E-03  0.8938E-18  0.4015E-18  0.9277E-18  0.1022E-17  0.2047E-05  0.8610E-18  0.6141E-05
     -0.350 -0.7418E-55 -0.6575E-57 -0.6575E-57 -0.6575E-57 -0.1150E-57 -0.1150E-57 -0.2535E-72 -0.1150E-57 -0.5025E-72
     -0.182  0.1341E-01  0.1638E-03  0.1638E-03  0.1638E-03  0.4387E-04  0.4387E-04  0.7707E-19  0.4387E-04  0.1160E-18
     -0.014 -0.1262E-18 -0.2014E-20 -0.2014E-20 -0.2014E-20 -0.8034E-21 -0.8034E-21 -0.6391E-36 -0.8034E-21 -0.2959E-35
      0.154  0.0000E+00  0.0000E+00  0.0000E+00  0.0000E+00  0.0000E+00  0.0000E+00  0.0000E+00  0.0000E+00  0.0000E+00
      0.322 -0.1149-316 -0.4223-318  0.0000E+00 -0.4223-318 -0.3218-318  0.0000E+00 -0.4176-319  0.0000E+00  0.0000E+00
      0.490  0.1235E-01  0.5140E-03  0.5900E-19  0.5140E-03  0.4630E-03  0.1350E-17  0.5753E-04  0.1822E-17  0.4744E-19
      0.658  0.0000E+00  0.0000E+00  0.0000E+00  0.0000E+00  0.0000E+00  0.0000E+00  0.0000E+00  0.0000E+00  0.0000E+00
      0.826  0.0000E+00  0.0000E+00  0.0000E+00  0.0000E+00  0.0000E+00  0.0000E+00  0.0000E+00  0.0000E+00  0.0000E+00
      0.994 -0.2017-195 -0.6769-197 -0.6769-197 -0.6769-197 -0.1909-196 -0.1909-196 -0.5660-213 -0.1909-196 -0.7767-213
      1.162  0.0000E+00  0.0000E+00  0.0000E+00  0.0000E+00  0.0000E+00  0.0000E+00  0.0000E+00  0.0000E+00  0.0000E+00
      1.330 -0.1069-173 -0.3604-175 -0.3604-175 -0.3604-175 -0.2386-174 -0.2386-174 -0.2006-189 -0.2386-174 -0.1873-189
      1.498  0.4979E-02  0.8573E-03  0.1933E-16  0.1424E-16  0.4336E-17  0.1211E-17  0.3783E-03  0.1119E-17  0.1135E-02
      1.666  0.5615E-02  0.9945E-04  0.9945E-04  0.9945E-04  0.3927E-02  0.3927E-02  0.2700E-17  0.3927E-02  0.1671E-17
      1.834 -0.5873E-50 -0.8957E-51 -0.1880E-52 -0.7638E-53 -0.1999E-50 -0.1869E-50 -0.7905E-51 -0.1999E-50 -0.2367E-50
      2.002  0.1271E-02 -0.3079E-06  0.1235E-04  0.1134E-04  0.2820E-16  0.8858E-17  0.4193E-02  0.9442E-04  0.1260E-01
      2.170  0.2037E-02 -0.7736E-05  0.1696E-04  0.1574E-03 -0.2968E-03 -0.2190E-03  0.8851E-02  0.2171E-02  0.2422E-01
      2.338  0.6594E-03  0.3066E-15  0.9219E-04  0.9318E-05  0.1526E-16  0.3930E-17  0.2277E-02  0.2627E-01  0.6832E-02
      2.506 -0.2627E-06 -0.5114E-09 -0.5114E-09 -0.2377E-09 -0.1405E-05 -0.7209E-08 -0.1847E-05 -0.1651E-05 -0.1108E-05
      2.674  0.8839E-02  0.4609E-03  0.4609E-03  0.4642E-03  0.4221E-01  0.3075E-02  0.3410E-01  0.4221E-01  0.1838E-01
      2.842  0.5555E-03  0.2263E-04  0.2266E-04  0.7601E-03  0.2485E-02  0.6847E-16  0.1961E-01  0.2330E-01  0.7745E-02
      3.010  0.1138E-13  0.8679E-06  0.8679E-06  0.7217E-03  0.1261E-03  0.5463E-16  0.1378E-01  0.2106E-01  0.4592E-02
      3.178  0.4084E-04  0.1941E-02  0.1322E-02  0.2562E-02  0.3236E-01  0.2956E-04  0.2713E-01  0.2322E-01  0.9336E-02
      3.346  0.1503E-03  0.1666E-02  0.9297E-03  0.9089E-03  0.2624E-01  0.2291E-15  0.1157E-01  0.1874E-01  0.4081E-03
      3.514 -0.2078E-31 -0.4128E-30 -0.4128E-30 -0.2077E-31 -0.7515E-29 -0.3290E-31 -0.2934E-30 -0.7515E-29 -0.1574E-30
      3.682  0.4572E-03  0.1139E-02  0.1233E-02  0.1276E-02  0.6168E-02  0.1360E-01  0.3224E-01  0.1283E-01  0.1124E-01
      3.850  0.7101E-03  0.2072E-02  0.1242E-02  0.9293E-03  0.2279E-01  0.3816E-04  0.2722E-01  0.2279E-01  0.3576E-02
      4.018  0.9999E-06  0.2140E-05  0.4004E-04  0.1791E-05  0.5781E-03  0.1166E-01 -0.6020E-03  0.3036E-01 -0.3396E-03
      4.186  0.1533E-13  0.1475E-02  0.1475E-02  0.9344E-05  0.3264E-01  0.1451E-01  0.9615E-03  0.3264E-01  0.1527E-02
      4.354  0.2725E-14  0.4064E-04  0.4064E-04  0.4617E-04  0.2374E-01  0.3563E-01  0.1157E-01  0.3480E-01  0.1297E-01
      4.522  0.2740E-03  0.3004E-02  0.3004E-02  0.4423E-04  0.2560E-01  0.2810E-01  0.2620E-05  0.3696E-01  0.1572E-05
      4.690 -0.9118E-25 -0.1265E-23 -0.1265E-23 -0.9685E-24 -0.9260E-23 -0.5780E-23 -0.2657E-23 -0.9260E-23 -0.1594E-23
      4.858  0.2887E-02  0.5091E-02  0.3812E-02  0.1974E-03  0.3317E-01  0.4391E-01  0.1554E-01  0.2543E-01  0.3102E-01
      5.026  0.4304E-04  0.3483E-02  0.1598E-02  0.1476E-02  0.1985E-01  0.2583E-01  0.4885E-02  0.2173E-01  0.2949E-02
      5.194 -0.9121E-05 -0.4287E-05  0.9934E-16  0.7963E-06 -0.5736E-09 -0.7614E-11 -0.6035E-05 -0.1922E-17  0.5850E-02
      5.362  0.2868E-02  0.8383E-03  0.1075E-04  0.2982E-04  0.4779E-04  0.2061E-15  0.1715E-01  0.4779E-04  0.7304E-01
      5.530  0.7729E-03  0.4088E-04  0.4088E-04  0.1366E-03  0.8114E-04  0.1643E-15  0.1269E-01  0.8114E-04  0.3055E-01
      5.698  0.1244E-03  0.1580E-03  0.1580E-03  0.3842E-03  0.1800E-04  0.5697E-15  0.3184E-01  0.1800E-04  0.5850E-01
      5.865  0.3714E-14  0.2550E-04  0.2776E-03  0.2776E-03  0.2920E-01  0.4061E-01  0.1258E-01  0.1823E-01  0.1258E-01
      6.033  0.5022E-14  0.1649E-14  0.8687E-04  0.8687E-04  0.2053E-02  0.2053E-02  0.1702E-01  0.9112E-17  0.5672E-02
      6.201  0.6719E-14  0.2235E-13  0.1479E-03  0.1479E-03  0.1655E-01  0.1655E-01 -0.3807E-11  0.4766E-16 -0.1509E-11
      6.369 -0.1466E-06  0.4662E-05  0.2465E-04  0.2890E-04  0.2062E-01  0.4117E-01  0.3974E-01  0.2055E-01  0.1991E-01
      6.537  0.8336E-04  0.8850E-03  0.5746E-04  0.8617E-13  0.2748E-01  0.8223E-01  0.2078E-03  0.4623E-02  0.6234E-03
      6.705  0.5581E-13  0.4078E-03  0.3342E-04  0.1867E-12  0.2385E-01  0.6920E-01  0.9376E-15  0.8386E-03  0.5488E-15
      6.873 -0.1535E-17 -0.3201E-18 -0.2988E-31 -0.3201E-18 -0.1077E-16 -0.1277E-31 -0.8784E-17 -0.5797E-31 -0.3731E-31
      7.041 -0.2606E-04 -0.5299E-05 -0.7129E-17 -0.5299E-05 -0.1564E-03 -0.1131E-18 -0.1163E-03 -0.1601E-18 -0.1204E-19
      7.209 -0.2712E-15 -0.5380E-16 -0.3731E-28 -0.5380E-16 -0.1393E-14 -0.4149E-29 -0.9499E-15 -0.6997E-30 -0.6257E-29
      7.377  0.1392E-02  0.3118E-02  0.3118E-02  0.3118E-02  0.5323E-03  0.5323E-03  0.1095E-16  0.5323E-03  0.2781E-17
      7.545  0.9064E-03  0.3328E-02  0.3328E-02  0.3328E-02  0.3357E-03  0.3357E-03  0.4020E-17  0.3357E-03  0.1963E-17
      7.713  0.0000E+00  0.0000E+00  0.0000E+00  0.0000E+00  0.0000E+00  0.0000E+00  0.0000E+00  0.0000E+00  0.0000E+00
      7.881 -0.2218E-51 -0.5000E-45 -0.5000E-45 -0.4984E-45 -0.4100E-46 -0.1640E-46 -0.5332E-46 -0.4100E-46 -0.3199E-46
      8.049  0.5487E-07  0.6634E-02  0.6634E-02  0.6581E-02  0.1196E-02  0.4778E-03  0.1581E-02  0.1196E-02  0.9483E-03
      8.217 -0.8236E-54 -0.3091E-40 -0.3091E-40 -0.3002E-40 -0.9856E-41 -0.2005E-56 -0.1327E-40 -0.9856E-41 -0.4424E-41
      8.385 -0.7329-148 -0.1271-148 -0.1509-160 -0.1271-148 -0.1505-147 -0.1333-162 -0.6261-148 -0.7306-163 -0.4377-162
      8.553 -0.9880E-94 -0.2544E-90 -0.2544E-90 -0.2478E-90 -0.9348E-91 -0.3692E-91 -0.1290E-90 -0.9348E-91 -0.7738E-91
      8.721  0.0000E+00  0.0000E+00  0.0000E+00  0.0000E+00  0.0000E+00  0.0000E+00  0.0000E+00  0.0000E+00  0.0000E+00
      8.889 -0.2696E-46 -0.5055E-33 -0.5055E-33 -0.4663E-33 -0.2505E-33 -0.7457E-48 -0.3537E-33 -0.2505E-33 -0.1179E-33
      9.057 -0.7186E-14 -0.2704E-11 -0.2704E-11 -0.2590E-11 -0.1186E-11 -0.4523E-12 -0.1666E-11 -0.1186E-11 -0.9997E-12
      9.225  0.0000E+00  0.0000E+00  0.0000E+00  0.0000E+00  0.0000E+00  0.0000E+00  0.0000E+00  0.0000E+00  0.0000E+00
      9.393  0.0000E+00  0.0000E+00  0.0000E+00  0.0000E+00  0.0000E+00  0.0000E+00  0.0000E+00  0.0000E+00  0.0000E+00
      9.561 -0.1927-249 -0.2930-250 -0.5844-263 -0.2930-250 -0.1849-249 -0.2072-264 -0.4413-250 -0.1817-263 -0.1214-264
      9.729  0.1136E-03  0.5855E-02  0.5855E-02  0.5508E-02  0.2810E-02  0.9346E-03  0.3863E-02  0.2810E-02  0.2318E-02
      9.897  0.1403E-15  0.1188E-01  0.3249E-15  0.4047E-15  0.6083E-03  0.6083E-03  0.1045E-16  0.8858E-19  0.1723E-18
     10.065  0.0000E+00 -0.1308-319  0.0000E+00  0.0000E+00 -0.1146-320 -0.1146-320  0.0000E+00  0.0000E+00  0.0000E+00
     10.233  0.0000E+00  0.0000E+00  0.0000E+00  0.0000E+00  0.0000E+00  0.0000E+00  0.0000E+00  0.0000E+00  0.0000E+00
     10.401 -0.5623E-13 -0.4429E-04 -0.3665E-12 -0.3494E-12 -0.5853E-05 -0.5853E-05 -0.2316E-12 -0.1982E-12 -0.1390E-12
     10.569  0.0000E+00  0.0000E+00  0.0000E+00  0.0000E+00  0.0000E+00  0.0000E+00  0.0000E+00  0.0000E+00  0.0000E+00
     10.737 -0.5607E-28 -0.1132E-14 -0.1502E-26 -0.1541E-26 -0.3664E-15 -0.3519E-29 -0.9495E-29 -0.4307E-29 -0.1384E-28
     10.905  0.6367E-02  0.4407E-02  0.4407E-02  0.4925E-02  0.3953E-02  0.2827E-05  0.2368E-02  0.3953E-02  0.1421E-02
     11.073 -0.5026E-25 -0.5746E-13 -0.4276E-25 -0.3514E-25 -0.1131E-13 -0.1131E-13 -0.7615E-27 -0.2632E-27 -0.7290E-27
     11.241  0.3344E-01  0.1103E-02  0.1256E-02  0.2029E-02  0.6649E-02  0.3448E-02  0.1403E-03  0.6681E-02  0.1695E-03
     11.409 -0.1741E-03 -0.9901E-05 -0.6028E-05 -0.2533E-09 -0.2882E-04 -0.2114E-04 -0.1411E-05 -0.2797E-04 -0.4232E-05
     11.577 -0.1839E-39 -0.1811E-26 -0.1922E-39 -0.2469E-39 -0.4111E-27 -0.4111E-27 -0.1479E-41 -0.6151E-41 -0.7889E-42
     11.745 -0.8697E-05 -0.3770E-03 -0.4377E-06 -0.2554E-15 -0.1617E-03 -0.4656E-06 -0.1342E-06 -0.1034E-05 -0.4025E-06
     11.913  0.1270E-01  0.6819E-03  0.6819E-03  0.1116E-14  0.1305E-02  0.4534E-03  0.2346E-03  0.1305E-02  0.7038E-03
     12.081 -0.1272E-64 -0.6893E-66 -0.6893E-66 -0.2497E-77 -0.1079E-65 -0.2675E-66 -0.2768E-66 -0.1079E-65 -0.8303E-66
     12.249  0.1258E-01 -0.1401E-10  0.7888E-03  0.7888E-03 -0.2148E-10  0.3881E-16  0.8341E-04  0.1555E-02  0.2502E-03
     12.417 -0.3444E-68 -0.1209E-69 -0.1209E-69 -0.6530E-70 -0.1595E-69 -0.2473E-82 -0.7235E-70 -0.1595E-69 -0.2083E-69
     12.585  0.1112E-02 -0.3359E-05  0.5406E-04  0.5638E-04 -0.3939E-05 -0.2016E-18  0.1566E-04  0.9195E-04  0.4724E-04
     12.753 -0.3105E-13 -0.3713E-15 -0.3713E-15 -0.4482E-16 -0.3767E-15 -0.4649E-28 -0.9958E-15 -0.3767E-15 -0.2944E-14
     12.921 -0.2606E-11 -0.8312E-25 -0.3210E-25 -0.6439E-14 -0.2861E-26 -0.1665E-26 -0.1442E-13 -0.3112E-26 -0.3603E-12
     13.089  0.1573E-01  0.2109E-01  0.1040E-01  0.1003E-03  0.8579E-02  0.3389E-02  0.7239E-05  0.3769E-02  0.2644E-02
     13.257 -0.3460E-15 -0.3384E-03 -0.3384E-03 -0.9537E-15 -0.1367E-03 -0.6719E-04 -0.9445E-18 -0.1367E-03 -0.5675E-17
     13.425  0.1524E-01  0.4442E-15  0.1535E-14  0.1245E-03  0.6557E-16  0.6244E-17  0.4373E-03  0.3953E-17  0.3297E-02
     13.593 -0.1401E-17 -0.3508E-12 -0.3508E-12 -0.6962E-20 -0.1501E-12 -0.2826E-13 -0.8218E-19 -0.1501E-12 -0.3418E-18
     13.761 -0.5243E-38 -0.4680E-26 -0.4680E-26 -0.2751E-37 -0.2010E-26 -0.2270E-27 -0.2437E-39 -0.2010E-26 -0.2890E-40
     13.929 -0.4000E-13 -0.1987E-14 -0.2140E-25 -0.1148E-24 -0.1831E-28 -0.2119E-28 -0.3569E-14 -0.3598E-28 -0.1071E-13
     14.097 -0.3158-102 -0.3937E-91 -0.3937E-91 -0.7734-102 -0.1664E-91 -0.5046E-93 -0.3052-104 -0.1664E-91 -0.1100-104
     14.265 -0.2630E-52 -0.6774E-41 -0.6774E-41 -0.4276E-52 -0.2823E-41 -0.3273E-43 -0.1418E-54 -0.2823E-41 -0.3150E-54
     14.433 -0.2395E-30 -0.4091E-31 -0.2793E-41 -0.1660E-41 -0.4702E-44 -0.9226E-44 -0.2135E-31 -0.5594E-45 -0.6405E-31
     14.601 -0.2174-321 -0.6474-319 -0.6474-319 -0.4941-322 -0.2589-319  0.0000E+00 -0.5929-322 -0.2589-319 -0.4941-322
     14.769 -0.1101E-13 -0.2692E-14 -0.2651E-24 -0.1870E-24 -0.6828E-27 -0.1160E-27 -0.9830E-15 -0.9789E-28 -0.2949E-14
     14.937  0.2390E-02  0.1577E-01  0.1577E-01  0.3593E-03  0.5826E-02  0.1030E-03  0.5298E-03  0.5826E-02  0.5839E-03
     15.105  0.2252E-02  0.1196E-01  0.1196E-01  0.8275E-03  0.4233E-02  0.5950E-04  0.1057E-02  0.4233E-02  0.7809E-03
     15.273  0.1189E-01  0.1502E-01  0.8985E-02  0.7755E-02  0.3502E-02  0.6808E-15  0.1302E-01  0.2985E-02  0.1203E-02
     15.441  0.2893E-02  0.3327E-02 -0.1538E-03  0.3407E-02  0.7143E-03  0.8699E-16  0.6033E-02 -0.4498E-04 -0.4901E-04
     15.609 -0.5376E-28 -0.5681E-39 -0.9699E-28 -0.9699E-28 -0.6034E-41 -0.4884E-41 -0.3854E-28 -0.2489E-28 -0.1156E-27
     15.777 -0.2094E-03 -0.9637E-04 -0.5136E-16 -0.9636E-04 -0.2407E-05 -0.6768E-18 -0.1050E-03 -0.8009E-17 -0.7583E-17
     15.945  0.6382E-02  0.2969E-02  0.2712E-13  0.2969E-02  0.1416E-03  0.3459E-15  0.2886E-02  0.1287E-15  0.3956E-16
     16.113 -0.3096-115 -0.3268-115 -0.4303-103 -0.8129-115 -0.1558-116 -0.1283-103 -0.1235-115 -0.1283-103 -0.2626-116
     16.281  0.4934E-03  0.7121E-14  0.4407E-02  0.4408E-02  0.2615E-16  0.1880E-15  0.1112E-02  0.1132E-02  0.3336E-02
     16.449  0.2928E-02  0.4763E-02  0.4763E-02  0.2565E-14  0.1133E-02  0.4524E-03  0.2374E-03  0.1133E-02  0.7123E-03
     16.617 -0.1028E-70 -0.9183E-74 -0.2540E-69 -0.2540E-69 -0.6289E-74 -0.6289E-74 -0.4865E-70 -0.5651E-70 -0.1459E-69
     16.785  0.1184E-03  0.1659E-12  0.1696E-01  0.4850E-02  0.7181E-15  0.8993E-15  0.8191E-03  0.3770E-02  0.2457E-02
     16.953 -0.8280E-05 -0.1360E-04 -0.1360E-04 -0.7616E-16 -0.2882E-05 -0.1556E-05 -0.7306E-06 -0.2882E-05 -0.2192E-05
     17.121 -0.5496E-71 -0.1902E-72 -0.2882E-59 -0.2654E-70 -0.3572E-73 -0.8782E-60 -0.4131E-74 -0.8782E-60 -0.1337E-73
     17.289 -0.6711-222 -0.6739-220 -0.3257-208 -0.4038-220 -0.9810-222 -0.5656-222 -0.9444-222 -0.5312-209 -0.4712-222
     17.457 -0.1316E-08 -0.1289E-16 -0.3584E-05 -0.3584E-05 -0.9469E-19 -0.1468E-18 -0.2958E-06 -0.4166E-06 -0.8875E-06
     17.625  0.3101E-05  0.5515E-19  0.4733E-19  0.7477E-02  0.1094E-18  0.8732E-21  0.4722E-02  0.8501E-19  0.2003E-02
     17.793  0.5504E-04  0.1128E-02  0.1128E-02  0.2105E-01  0.3322E-03  0.2614E-20  0.1354E-01  0.3322E-03  0.5022E-02
     17.961 -0.1048E-12 -0.9975E-19 -0.4628E-08 -0.6787E-10 -0.3326E-19 -0.1555E-22 -0.1530E-10 -0.2832E-09 -0.7975E-11
     18.129  0.1414E-03  0.2300E-02  0.2300E-02  0.1133E-01  0.5967E-03  0.1470E-20  0.8517E-02  0.5967E-03  0.2870E-02
     18.297 -0.2331E-03 -0.2173E-03  0.6179E-01  0.6178E-01 -0.4421E-10 -0.4421E-10 -0.1031E-04  0.4848E-05 -0.6442E-04
     18.465  0.2356E-03  0.3261E-02  0.3261E-02  0.1051E-01  0.7469E-03  0.1450E-20  0.7222E-02  0.7469E-03  0.2487E-02
     18.633  0.3370E-02  0.2327E-02  0.2327E-02  0.2327E-02  0.1340E-02  0.1340E-02  0.1099E-14  0.1340E-02  0.8516E-16
     18.801  0.7122E-02  0.7341E-02  0.9631E-13  0.3303E-13  0.6212E-15  0.4152E-16  0.7502E-03  0.1463E-15  0.2251E-02
     18.969  0.8576E-23  0.8120E-22  0.6130E-02  0.6130E-02  0.2069E-19  0.2110E-19  0.4534E-03  0.2540E-22  0.1511E-03
     19.137 -0.4708E-18 -0.6415E-17  0.6124E-02  0.6124E-02 -0.1072E-17  0.2508E-19  0.5534E-03 -0.1097E-17  0.1845E-03
     19.305  0.3184E-02  0.8640E-02  0.8892E-02  0.7231E-02  0.1511E-02  0.1910E-02  0.7131E-02  0.1511E-02  0.3173E-02
     19.473 -0.6273-118 -0.1702E-97 -0.1702E-97 -0.5153E-97 -0.5883E-98 -0.1758-118 -0.4274E-97 -0.5883E-98 -0.1425E-97
     19.641 -0.5041E-06 -0.8247E-05 -0.8247E-05 -0.1468E-04 -0.1034E-05 -0.5135E-23 -0.6308E-05 -0.1034E-05 -0.2715E-05
     19.809  0.1129E-03  0.2785E-03  0.2785E-03  0.8772E-04  0.3590E-04  0.6947E-04  0.1137E-03  0.3590E-04  0.6824E-04
     19.977 -0.1297E-33 -0.7054E-34 -0.2149E-19 -0.2149E-19 -0.2680E-20 -0.2680E-20 -0.5257E-35 -0.2287E-35 -0.3967E-35
     20.145  0.0000E+00  0.0000E+00  0.0000E+00  0.0000E+00  0.0000E+00  0.0000E+00  0.0000E+00  0.0000E+00  0.0000E+00
     20.313  0.1274E-02  0.3579E-02  0.3579E-02  0.1055E-02  0.4394E-03  0.8627E-03  0.1389E-02  0.4394E-03  0.8334E-03
     20.481  0.0000E+00  0.0000E+00  0.0000E+00  0.0000E+00  0.0000E+00  0.0000E+00  0.0000E+00  0.0000E+00  0.0000E+00
     20.649  0.2341E-04  0.6250E-02  0.6250E-02  0.1169E-01  0.4182E-04  0.6471E-19  0.1681E-02  0.4182E-04  0.2000E-02
     20.817  0.0000E+00  0.0000E+00  0.0000E+00  0.0000E+00  0.0000E+00  0.0000E+00  0.0000E+00  0.0000E+00  0.0000E+00
     20.985  0.0000E+00  0.0000E+00  0.0000E+00  0.0000E+00  0.0000E+00  0.0000E+00  0.0000E+00  0.0000E+00  0.0000E+00
     21.153  0.1682E-02  0.5378E-02  0.5378E-02  0.4383E-13  0.5146E-03  0.9152E-03  0.2754E-03  0.5146E-03  0.8263E-03
     21.321 -0.2765-301 -0.3019-301 -0.3019-301 -0.3019-301 -0.1551-301 -0.1551-301 -0.9108-313 -0.1551-301 -0.4712-314
     21.489 -0.2587E-08 -0.1067E-07  0.1163E-01  0.1163E-01  0.2402E-02  0.2402E-02 -0.3921E-08 -0.1175E-08 -0.2352E-08
     21.657  0.0000E+00  0.0000E+00  0.0000E+00  0.0000E+00  0.0000E+00  0.0000E+00  0.0000E+00  0.0000E+00  0.0000E+00
     21.825  0.1879E-23  0.3087E-03  0.3494E-22  0.3087E-03  0.8217E-24  0.2819E-20  0.2185E-25  0.2801E-20  0.1217E-03
     21.993  0.0000E+00  0.0000E+00  0.0000E+00  0.0000E+00  0.0000E+00  0.0000E+00  0.0000E+00  0.0000E+00  0.0000E+00
     22.161 -0.4116E-86 -0.7601E-69 -0.7601E-69 -0.9883E-69 -0.2988E-69 -0.1915E-86 -0.1076E-68 -0.2988E-69 -0.3587E-69
     22.329  0.7627E-14 -0.1249E-03  0.3186E-02  0.3061E-02  0.8037E-03  0.8025E-03 -0.3365E-04 -0.1210E-05 -0.5608E-04
     22.497  0.4437E-02  0.1042E-01  0.1627E-02  0.1599E-02  0.1703E-04  0.6556E-05  0.8358E-03  0.1703E-04  0.2435E-02
     22.665  0.0000E+00  0.0000E+00  0.0000E+00  0.0000E+00  0.0000E+00  0.0000E+00  0.0000E+00  0.0000E+00  0.0000E+00
     22.833  0.0000E+00  0.0000E+00  0.0000E+00  0.0000E+00  0.0000E+00  0.0000E+00  0.0000E+00  0.0000E+00  0.0000E+00
     23.001 -0.3752E-17 -0.6296E-17 -0.6296E-17 -0.6296E-17 -0.4203E-17 -0.4203E-17 -0.1341E-27 -0.4203E-17 -0.2656E-27
     23.169 -0.5380E-68 -0.2450E-53 -0.2450E-53 -0.4900E-53 -0.3163E-55 -0.6326E-55 -0.6036E-54 -0.3174E-55 -0.1006E-53