    1    1    1    1
  0.1814474E+02  0.2949546E-09  0.2949546E-09  0.2949546E-09  0.5000000E-15
  1.000000000000000E-004
  CAR 
 Au                                      
     11    500     16
 
  0.0000000E+00  0.0000000E+00  0.0000000E+00  0.2000000E-02
    1       -0.747357   1.000000
    2        4.097454   1.000000
    3        4.097454   1.000000
    4        4.097454   1.000000
    5        5.441099   1.000000
    6        5.441099   1.000000
    7       23.051910   0.000000
    8       26.690191   0.000000
    9       26.690191   0.000000
   10       26.690191   0.000000
   11       31.400732   0.000000
   12       35.387805   0.000000
   13       35.387805   0.000000
   14       35.387805   0.000000
   15       36.727688   0.000000
   16       36.727689   0.000000
 
  0.1020408E-01  0.0000000E+00  0.1020408E-01  0.2000000E-02
    1       -0.742763   1.000000
    2        4.095176   1.000000
    3        4.099437   1.000000
    4        4.099437   1.000000
    5        5.438691   1.000000
    6        5.442076   1.000000
    7       23.057096   0.000000
    8       26.670419   0.000000
    9       26.686414   0.000000
   10       26.686414   0.000000
   11       31.434299   0.000000
   12       35.296841   0.000000
   13       35.296841   0.000000
   14       35.391575   0.000000
   15       36.675766   0.000000
   16       36.826739   0.000000
 
  0.2040816E-01  0.0000000E+00  0.2040816E-01  0.2000000E-02
    1       -0.728939   1.000000
    2        4.088357   1.000000
    3        4.105385   1.000000
    4        4.105385   1.000000
    5        5.431470   1.000000
    6        5.445005   1.000000
    7       23.072625   0.000000
    8       26.612909   0.000000
    9       26.674905   0.000000
   10       26.674905   0.000000
   11       31.533050   0.000000
   12       35.078366   0.000000
   13       35.078367   0.000000
   14       35.402893   0.000000
   15       36.517090   0.000000
   16       37.069626   0.000000
 
  0.3061224E-01  0.0000000E+00  0.3061224E-01  0.2000000E-02
    1       -0.705911   1.000000
    2        4.077051   1.000000
    3        4.115297   1.000000
    4        4.115297   1.000000
    5        5.419486   1.000000
    6        5.449874   1.000000
    7       23.098411   0.000000
    8       26.522529   0.000000
    9       26.655121   0.000000
   10       26.655121   0.000000
   11       31.691620   0.000000
   12       34.806669   0.000000
   13       34.806669   0.000000
   14       35.421778   0.000000
   15       36.268525   0.000000
   16       37.382482   0.000000
 
  0.4081633E-01  0.0000000E+00  0.4081633E-01  0.2000000E-02
    1       -0.673722   1.000000
    2        4.061329   1.000000
    3        4.129153   1.000000
    4        4.129153   1.000000
    5        5.402834   1.000000
    6        5.456669   1.000000
    7       23.134310   0.000000
    8       26.405936   0.000000
    9       26.626200   0.000000
   10       26.626200   0.000000
   11       31.902335   0.000000
   12       34.519757   0.000000
   13       34.519757   0.000000
   14       35.448276   0.000000
   15       35.944018   0.000000
   16       37.728025   0.000000
 
  0.5102041E-01  0.0000000E+00  0.5102041E-01  0.2000000E-02
    1       -0.632443   1.000000
    2        4.041294   1.000000
    3        4.146938   1.000000
    4        4.146938   1.000000
    5        5.381665   1.000000
    6        5.465366   1.000000
    7       23.180126   0.000000
    8       26.270195   0.000000
    9       26.586971   0.000000
   10       26.586971   0.000000
   11       32.156071   0.000000
   12       34.234961   0.000000
   13       34.234961   0.000000
   14       35.482448   0.000000
   15       35.560668   0.000000
   16       38.089906   0.000000
 
  0.6122449E-01  0.0000000E+00  0.6122449E-01  0.2000000E-02
    1       -0.582204   1.000000
    2        4.017082   1.000000
    3        4.168635   1.000000
    4        4.168635   1.000000
    5        5.356150   1.000000
    6        5.475938   1.000000
    7       23.235610   0.000000
    8       26.121832   0.000000
    9       26.535992   0.000000
   10       26.535992   0.000000
   11       32.441717   0.000000
   12       33.961502   0.000000
   13       33.961502   0.000000
   14       35.136541   0.000000
   15       35.524370   0.000000
   16       38.460098   0.000000
 
  0.7142857E-01  0.0000000E+00  0.7142857E-01  0.2000000E-02
    1       -0.523063   1.000000
    2        3.988855   1.000000
    3        4.194225   1.000000
    4        4.194225   1.000000
    5        5.326501   1.000000
    6        5.488353   1.000000
    7       23.300453   0.000000
    8       25.966387   0.000000
    9       26.471623   0.000000
   10       26.471623   0.000000
   11       32.741423   0.000000
   12       33.705322   0.000000
   13       33.705322   0.000000
   14       34.695095   0.000000
   15       35.574123   0.000000
   16       38.833966   0.000000
 
  0.8163265E-01  0.0000000E+00  0.8163265E-01  0.2000000E-02
    1       -0.455154   1.000000
    2        3.956789   1.000000
    3        4.223670   1.000000
    4        4.223670   1.000000
    5        5.292975   1.000000
    6        5.502567   1.000000
    7       23.374306   0.000000
    8       25.808357   0.000000
    9       26.392161   0.000000
   10       26.392161   0.000000
   11       33.007040   0.000000
   12       33.470839   0.000000
   13       33.470839   0.000000
   14       34.288744   0.000000
   15       35.631822   0.000000
   16       39.208505   0.000000
 
  0.9183673E-01  0.0000000E+00  0.9183673E-01  0.2000000E-02
    1       -0.378638   1.000000
    2        3.921094   1.000000
    3        4.256942   1.000000
    4        4.256943   1.000000
    5        5.255876   1.000000
    6        5.518543   1.000000
    7       23.456780   0.000000
    8       25.651267   0.000000
    9       26.295943   0.000000
   10       26.295943   0.000000
   11       33.066421   0.000000
   12       33.261594   0.000000
   13       33.261594   0.000000
   14       34.092763   0.000000
   15       35.697593   0.000000
   16       39.581498   0.000000
 
  0.1020408E+00  0.0000000E+00  0.1020408E+00  0.2000000E-02
    1       -0.293721   1.000000
    2        3.881975   1.000000
    3        4.293985   1.000000
    4        4.293985   1.000000
    5        5.215582   1.000000
    6        5.536222   1.000000
    7       23.547409   0.000000
    8       25.497820   0.000000
    9       26.181503   0.000000
   10       26.181503   0.000000
   11       32.756042   0.000000
   12       33.080442   0.000000
   13       33.080442   0.000000
   14       34.272889   0.000000
   15       35.771570   0.000000
   16       39.951184   0.000000
 
  0.1122449E+00  0.0000000E+00  0.1122449E+00  0.2000000E-02
    1       -0.200674   1.000000
    2        3.839679   1.000000
    3        4.334752   1.000000
    4        4.334752   1.000000
    5        5.172517   1.000000
    6        5.555542   1.000000
    7       23.645720   0.000000
    8       25.350075   0.000000
    9       26.047744   0.000000
   10       26.047745   0.000000
   11       32.271397   0.000000
   12       32.929585   0.000000
   13       32.929585   0.000000
   14       34.635182   0.000000
   15       35.853904   0.000000
   16       40.316099   0.000000
 
  0.1224490E+00  0.0000000E+00  0.1224490E+00  0.2000000E-02
    1       -0.099731   1.000000
    2        3.794458   1.000000
    3        4.379194   1.000000
    4        4.379194   1.000000
    5        5.127147   1.000000
    6        5.576441   1.000000
    7       23.751192   0.000000
    8       25.209562   0.000000
    9       25.894057   0.000000
   10       25.894057   0.000000
   11       31.732608   0.000000
   12       32.810531   0.000000
   13       32.810531   0.000000
   14       35.060555   0.000000
   15       35.944760   0.000000
   16       40.674997   0.000000
 
  0.1326531E+00  0.0000000E+00  0.1326531E+00  0.2000000E-02
    1        0.008773   1.000000
    2        3.746578   1.000000
    3        4.427251   1.000000
    4        4.427251   1.000000
    5        5.080019   1.000000
    6        5.598850   1.000000
    7       23.863269   0.000000
    8       25.077409   0.000000
    9       25.720411   0.000000
   10       25.720411   0.000000
   11       31.171344   0.000000
   12       32.724064   0.000000
   13       32.724065   0.000000
   14       35.517899   0.000000
   15       36.044313   0.000000
   16       41.026782   0.000000
 
  0.1428571E+00  0.0000000E+00  0.1428571E+00  0.2000000E-02
    1        0.124438   1.000000
    2        3.696304   1.000000
    3        4.478852   1.000000
    4        4.478852   1.000000
    5        5.031759   1.000000
    6        5.622690   1.000000
    7       23.981371   0.000000
    8       24.954427   0.000000
    9       25.527401   0.000000
   10       25.527401   0.000000
   11       30.598473   0.000000
   12       32.670276   0.000000
   13       32.670276   0.000000
   14       35.996518   0.000000
   15       36.152748   0.000000
   16       41.370605   0.000000
 
  0.1530612E+00  0.0000000E+00  0.1530612E+00  0.2000000E-02
    1        0.246764   1.000000
    2        3.643914   1.000000
    3        4.533923   1.000000
    4        4.533923   1.000000
    5        4.983095   1.000000
    6        5.647879   1.000000
    7       24.104891   0.000000
    8       24.841164   0.000000
    9       25.316159   0.000000
   10       25.316159   0.000000
   11       30.019052   0.000000
   12       32.648621   0.000000
   13       32.648621   0.000000
   14       36.270256   0.000000
   15       36.491118   0.000000
   16       41.483534   0.000000
 
  0.1632653E+00  0.0000000E+00  0.1632653E+00  0.2000000E-02
    1        0.375144   1.000000
    2        3.589678   1.000000
    3        4.592367   1.000000
    4        4.592367   1.000000
    5        4.934868   1.000000
    6        5.674337   1.000000
    7       24.233194   0.000000
    8       24.737960   0.000000
    9       25.088268   0.000000
   10       25.088268   0.000000
   11       29.436064   0.000000
   12       32.658047   0.000000
   13       32.658047   0.000000
   14       36.397044   0.000000
   15       36.998162   0.000000
   16       41.202462   0.000000
 
  0.1734694E+00  0.0000000E+00  0.1734694E+00  0.2000000E-02
    1        0.508918   1.000000
    2        3.533876   1.000000
    3        4.654087   1.000000
    4        4.654087   1.000000
    5        4.888016   1.000000
    6        5.701960   1.000000
    7       24.365630   0.000000
    8       24.644948   0.000000
    9       24.845623   0.000000
   10       24.845623   0.000000
   11       28.851525   0.000000
   12       32.697140   0.000000
   13       32.697140   0.000000
   14       36.533317   0.000000
   15       37.514626   0.000000
   16       40.922070   0.000000
 
  0.1836735E+00  0.0000000E+00  0.1836735E+00  0.2000000E-02
    1        0.647240   1.000000
    2        3.476787   1.000000
    3        4.718969   1.000000
    4        4.718969   1.000000
    5        4.843650   1.000000
    6        5.730651   1.000000
    7       24.501538   0.000000
    8       24.562087   0.000000
    9       24.590292   0.000000
   10       24.590292   0.000000
   11       28.266940   0.000000
   12       32.764266   0.000000
   13       32.764266   0.000000
   14       36.679278   0.000000
   15       38.037469   0.000000
   16       40.641999   0.000000
 
  0.1938776E+00  0.0000000E+00  0.1938776E+00  0.2000000E-02
    1        0.789078   1.000000
    2        3.418689   1.000000
    3        4.786891   1.000000
    4        4.786891   1.000000
    5        4.803062   1.000000
    6        5.760311   1.000000
    7       24.324409   0.000000
    8       24.324409   0.000000
    9       24.489142   0.000000
   10       24.640252   0.000000
   11       27.683579   0.000000
   12       32.857705   0.000000
   13       32.857705   0.000000
   14       36.835127   0.000000
   15       38.563212   0.000000
   16       40.363325   0.000000
 
  0.2040816E+00  0.0000000E+00  0.2040816E+00  0.2000000E-02
    1        0.933166   1.000000
    2        3.359845   1.000000
    3        4.767767   1.000000
    4        4.857711   1.000000
    5        4.857711   1.000000
    6        5.790820   1.000000
    7       24.050070   0.000000
    8       24.050070   0.000000
    9       24.425605   0.000000
   10       24.781085   0.000000
   11       27.102630   0.000000
   12       32.975740   0.000000
   13       32.975740   0.000000
   14       37.001056   0.000000
   15       39.087526   0.000000
   16       40.086994   0.000000
 
  0.2142857E+00  0.0000000E+00  0.2142857E+00  0.2000000E-02
    1        1.077983   1.000000
    2        3.300525   1.000000
    3        4.739532   1.000000
    4        4.931276   1.000000
    5        4.931276   1.000000
    6        5.822069   1.000000
    7       23.769280   0.000000
    8       23.769280   0.000000
    9       24.370506   0.000000
   10       24.923368   0.000000
   11       26.525573   0.000000
   12       33.116732   0.000000
   13       33.116732   0.000000
   14       37.177243   0.000000
   15       39.604739   0.000000
   16       39.813848   0.000000
 
  0.2244898E+00  0.0000000E+00  0.2244898E+00  0.2000000E-02
    1        1.221779   1.000000
    2        3.240995   1.000000
    3        4.720396   1.000000
    4        5.007441   1.000000
    5        5.007441   1.000000
    6        5.853940   1.000000
    7       23.483916   0.000000
    8       23.483916   0.000000
    9       24.321771   0.000000
   10       25.066436   0.000000
   11       25.954807   0.000000
   12       33.279162   0.000000
   13       33.279162   0.000000
   14       37.363846   0.000000
   15       39.544698   0.000000
   16       40.107150   0.000000
 
  0.2346939E+00  0.0000000E+00  0.2346939E+00  0.2000000E-02
    1        1.362459   1.000000
    2        3.181500   1.000000
    3        4.712701   1.000000
    4        5.086007   1.000000
    5        5.086007   1.000000
    6        5.886312   1.000000
    7       23.195709   0.000000
    8       23.195709   0.000000
    9       24.273857   0.000000
   10       25.209622   0.000000
   11       25.396046   0.000000
   12       33.461636   0.000000
   13       33.461636   0.000000
   14       37.561016   0.000000
   15       39.280255   0.000000
   16       40.584286   0.000000
 
  0.2448980E+00  0.0000000E+00  0.2448980E+00  0.2000000E-02
    1        1.497640   1.000000
    2        3.122287   1.000000
    3        4.719064   1.000000
    4        5.166772   1.000000
    5        5.166772   1.000000
    6        5.919058   1.000000
    7       22.906239   0.000000
    8       22.906239   0.000000
    9       24.204945   0.000000
   10       24.871163   0.000000
   11       25.352277   0.000000
   12       33.662902   0.000000
   13       33.662902   0.000000
   14       37.768865   0.000000
   15       39.021175   0.000000
   16       41.022259   0.000000
 
  0.2551020E+00  0.0000000E+00  0.2551020E+00  0.2000000E-02
    1        1.624711   1.000000
    2        3.063591   1.000000
    3        4.742295   1.000000
    4        5.249514   1.000000
    5        5.249514   1.000000
    6        5.952051   1.000000
    7       22.616945   0.000000
    8       22.616945   0.000000
    9       24.003094   0.000000
   10       24.492024   0.000000
   11       25.493769   0.000000
   12       33.881843   0.000000
   13       33.881843   0.000000
   14       37.987471   0.000000
   15       38.768066   0.000000
   16       41.404177   0.000000
 
  0.2653061E+00  0.0000000E+00  0.2653061E+00  0.2000000E-02
    1        1.741037   1.000000
    2        3.005633   1.000000
    3        4.785219   1.000000
    4        5.333980   1.000000
    5        5.333980   1.000000
    6        5.985154   1.000000
    7       22.329163   0.000000
    8       22.329163   0.000000
    9       23.557202   0.000000
   10       24.369664   0.000000
   11       25.633494   0.000000
   12       34.117462   0.000000
   13       34.117462   0.000000
   14       38.216867   0.000000
   15       38.521480   0.000000
   16       41.712986   0.000000
 
  0.2755102E+00  0.0000000E+00  0.2755102E+00  0.2000000E-02
    1        1.844235   1.000000
    2        2.948627   1.000000
    3        4.850423   1.000000
    4        5.419900   1.000000
    5        5.419900   1.000000
    6        6.018228   1.000000
    7       22.044107   0.000000
    8       22.044107   0.000000
    9       23.030171   0.000000
   10       24.341012   0.000000
   11       25.770871   0.000000
   12       34.368874   0.000000
   13       34.368874   0.000000
   14       38.281930   0.000000
   15       38.457041   0.000000
   16       41.937079   0.000000
 
  0.2857143E+00  0.0000000E+00  0.2857143E+00  0.2000000E-02
    1        1.932412   1.000000
    2        2.892781   1.000000
    3        4.939954   1.000000
    4        5.506989   1.000000
    5        5.506989   1.000000
    6        6.051137   1.000000
    7       21.762899   0.000000
    8       21.762899   0.000000
    9       22.489119   0.000000
   10       24.338729   0.000000
   11       25.905351   0.000000
   12       34.635289   0.000000
   13       34.635289   0.000000
   14       38.049898   0.000000
   15       38.707915   0.000000
   16       42.075464   0.000000
 
  0.2959184E+00  0.0000000E+00  0.2959184E+00  0.2000000E-02
    1        2.004476   1.000000
    2        2.838289   1.000000
    3        5.055033   1.000000
    4        5.594928   1.000000
    5        5.594928   1.000000
    6        6.083739   1.000000
    7       21.486581   0.000000
    8       21.486581   0.000000
    9       21.947084   0.000000
   10       24.349509   0.000000
   11       26.036413   0.000000
   12       34.915994   0.000000
   13       34.915994   0.000000
   14       37.825827   0.000000
   15       38.969347   0.000000
   16       42.137636   0.000000
 
  0.3061224E+00  0.0000000E+00  0.3061224E+00  0.2000000E-02
    1        2.060251   1.000000
    2        2.785330   1.000000
    3        5.195882   1.000000
    4        5.683357   1.000000
    5        5.683357   1.000000
    6        6.115891   1.000000
    7       21.216136   0.000000
    8       21.216136   0.000000
    9       21.407917   0.000000
   10       24.369177   0.000000
   11       26.163568   0.000000
   12       35.210343   0.000000
   13       35.210344   0.000000
   14       37.610138   0.000000
   15       39.241125   0.000000
   16       42.138423   0.000000
 
  0.3163265E+00  0.0000000E+00  0.3163265E+00  0.2000000E-02
    1        2.100506   1.000000
    2        2.734089   1.000000
    3        5.361769   1.000000
    4        5.771913   1.000000
    5        5.771913   1.000000
    6        6.147464   1.000000
    7       20.873349   0.000000
    8       20.952495   0.000000
    9       20.952495   0.000000
   10       24.395742   0.000000
   11       26.286363   0.000000
   12       35.517741   0.000000
   13       35.517741   0.000000
   14       37.403227   0.000000
   15       39.522947   0.000000
   16       42.092787   0.000000
 
  0.3265306E+00  0.0000000E+00  0.3265306E+00  0.2000000E-02
    1        2.126744   1.000000
    2        2.684723   1.000000
    3        5.551197   1.000000
    4        5.860177   1.000000
    5        5.860177   1.000000
    6        6.178310   1.000000
    7       20.344381   0.000000
    8       20.696550   0.000000
    9       20.696550   0.000000
   10       24.427894   0.000000
   11       26.404384   0.000000
   12       35.837629   0.000000
   13       35.837629   0.000000
   14       37.205454   0.000000
   15       39.814394   0.000000
   16       42.013296   0.000000
 
  0.3367347E+00  0.0000000E+00  0.3367347E+00  0.2000000E-02
    1        2.140886   1.000000
    2        2.637388   1.000000
    3        5.762163   1.000000
    4        5.947718   1.000000
    5        5.947718   1.000000
    6        6.208302   1.000000
    7       19.821754   0.000000
    8       20.449166   0.000000
    9       20.449166   0.000000
   10       24.464595   0.000000
   11       26.517254   0.000000
   12       36.169473   0.000000
   13       36.169473   0.000000
   14       37.017165   0.000000
   15       40.114927   0.000000
   16       41.909719   0.000000
 
  0.3469388E+00  0.0000000E+00  0.3469388E+00  0.2000000E-02
    1        2.145025   1.000000
    2        2.592227   1.000000
    3        5.992412   1.000000
    4        6.034067   1.000000
    5        6.034067   1.000000
    6        6.237298   1.000000
    7       19.306122   0.000000
    8       20.211184   0.000000
    9       20.211184   0.000000
   10       24.504919   0.000000
   11       26.624631   0.000000
   12       36.512745   0.000000
   13       36.512745   0.000000
   14       36.838675   0.000000
   15       40.423862   0.000000
   16       41.789556   0.000000
 
  0.3571429E+00  0.0000000E+00  0.3571429E+00  0.2000000E-02
    1        2.141227   1.000000
    2        2.549378   1.000000
    3        6.118746   1.000000
    4        6.118746   1.000000
    5        6.239605   1.000000
    6        6.265156   1.000000
    7       18.798104   0.000000
    8       19.983429   0.000000
    9       19.983429   0.000000
   10       24.548011   0.000000
   11       26.726219   0.000000
   12       36.670292   0.000000
   13       36.866920   0.000000
   14       36.866920   0.000000
   15       40.740327   0.000000
   16       41.658607   0.000000
 
  0.3673469E+00  0.0000000E+00  0.3673469E+00  0.2000000E-02
    1        2.131365   1.000000
    2        2.508962   1.000000
    3        6.201201   1.000000
    4        6.201201   1.000000
    5        6.291743   1.000000
    6        6.501456   1.000000
    7       18.298469   0.000000
    8       19.766717   0.000000
    9       19.766718   0.000000
   10       24.593000   0.000000
   11       26.821738   0.000000
   12       36.512290   0.000000
   13       37.231434   0.000000
   14       37.231434   0.000000
   15       41.063246   0.000000
   16       41.521476   0.000000
 
  0.3775510E+00  0.0000000E+00  0.3775510E+00  0.2000000E-02
    1        2.117132   1.000000
    2        2.471092   1.000000
    3        6.280881   1.000000
    4        6.280881   1.000000
    5        6.316932   1.000000
    6        6.775751   1.000000
    7       17.808081   0.000000
    8       19.561854   0.000000
    9       19.561854   0.000000
   10       24.639041   0.000000
   11       26.910947   0.000000
   12       36.364932   0.000000
   13       37.605672   0.000000
   14       37.605672   0.000000
   15       41.381959   0.000000
   16       41.391267   0.000000
 
  0.3877551E+00  0.0000000E+00  0.3877551E+00  0.2000000E-02
    1        2.099972   1.000000
    2        2.435873   1.000000
    3        6.340600   1.000000
    4        6.357211   1.000000
    5        6.357211   1.000000
    6        7.060270   1.000000
    7       17.327972   0.000000
    8       19.369634   0.000000
    9       19.369634   0.000000
   10       24.685299   0.000000
   11       26.993639   0.000000
   12       36.228459   0.000000
   13       37.988926   0.000000
   14       37.988926   0.000000
   15       41.243246   0.000000
   16       41.722698   0.000000
 
  0.3979592E+00  0.0000000E+00  0.3979592E+00  0.2000000E-02
    1        2.081103   1.000000
    2        2.403401   1.000000
    3        6.362632   1.000000
    4        6.429604   1.000000
    5        6.429604   1.000000
    6        7.352712   1.000000
    7       16.859440   0.000000
    8       19.190841   0.000000
    9       19.190841   0.000000
   10       24.730951   0.000000
   11       27.069634   0.000000
   12       36.103097   0.000000
   13       38.380345   0.000000
   14       38.380345   0.000000
   15       41.108081   0.000000
   16       42.055411   0.000000
 
  0.4081633E+00  0.0000000E+00  0.4081633E+00  0.2000000E-02
    1        2.061549   1.000000
    2        2.373761   1.000000
    3        6.382905   1.000000
    4        6.497470   1.000000
    5        6.497470   1.000000
    6        7.650552   1.000000
    7       16.404121   0.000000
    8       19.026243   0.000000
    9       19.026243   0.000000
   10       24.775200   0.000000
   11       27.138778   0.000000
   12       35.989048   0.000000
   13       38.778845   0.000000
   14       38.778845   0.000000
   15       40.978862   0.000000
   16       42.386723   0.000000
 
  0.4183673E+00  0.0000000E+00  0.4183673E+00  0.2000000E-02
    1        2.042176   1.000000
    2        2.347039   1.000000
    3        6.401344   1.000000
    4        6.560222   1.000000
    5        6.560222   1.000000
    6        7.950898   1.000000
    7       15.964290   0.000000
    8       18.876587   0.000000
    9       18.876587   0.000000
   10       24.817270   0.000000
   11       27.200945   0.000000
   12       35.886500   0.000000
   13       39.182997   0.000000
   14       39.182997   0.000000
   15       40.857693   0.000000
   16       42.713231   0.000000
 
  0.4285714E+00  0.0000000E+00  0.4285714E+00  0.2000000E-02
    1        2.023676   1.000000
    2        2.323301   1.000000
    3        6.417848   1.000000
    4        6.617269   1.000000
    5        6.617269   1.000000
    6        8.250190   1.000000
    7       15.542990   0.000000
    8       18.742587   0.000000
    9       18.742587   0.000000
   10       24.856403   0.000000
   11       27.256022   0.000000
   12       35.795620   0.000000
   13       39.590771   0.000000
   14       39.590771   0.000000
   15       40.746427   0.000000
   16       43.030616   0.000000
 
  0.4387755E+00  0.0000000E+00  0.4387755E+00  0.2000000E-02
    1        2.006620   1.000000
    2        2.302605   1.000000
    3        6.432332   1.000000
    4        6.668038   1.000000
    5        6.668038   1.000000
    6        8.543793   1.000000
    7       15.144425   0.000000
    8       18.624912   0.000000
    9       18.624912   0.000000
   10       24.891894   0.000000
   11       27.303916   0.000000
   12       35.716557   0.000000
   13       39.999158   0.000000
   14       39.999158   0.000000
   15       40.646693   0.000000
   16       43.333412   0.000000
 
  0.4489796E+00  0.0000000E+00  0.4489796E+00  0.2000000E-02
    1        1.991472   1.000000
    2        2.285003   1.000000
    3        6.444717   1.000000
    4        6.711997   1.000000
    5        6.711997   1.000000
    6        8.825466   1.000000
    7       14.774475   0.000000
    8       18.524183   0.000000
    9       18.524183   0.000000
   10       24.923107   0.000000
   11       27.344553   0.000000
   12       35.649437   0.000000
   13       40.403446   0.000000
   14       40.403446   0.000000
   15       40.559902   0.000000
   16       43.614773   0.000000
 
  0.4591837E+00  0.0000000E+00  0.4591837E+00  0.2000000E-02
    1        1.978600   1.000000
    2        2.270541   1.000000
    3        6.454937   1.000000
    4        6.748672   1.000000
    5        6.748672   1.000000
    6        9.086624   1.000000
    7       14.441372   0.000000
    8       18.440953   0.000000
    9       18.440953   0.000000
   10       24.949475   0.000000
   11       27.377874   0.000000
   12       35.594370   0.000000
   13       40.487245   0.000000
   14       40.795825   0.000000
   15       40.795826   0.000000
   16       43.866337   0.000000
 
  0.4693878E+00  0.0000000E+00  0.4693878E+00  0.2000000E-02
    1        1.968304   1.000000
    2        2.259256   1.000000
    3        6.462943   1.000000
    4        6.777656   1.000000
    5        6.777656   1.000000
    6        9.315764   1.000000
    7       14.156476   0.000000
    8       18.375699   0.000000
    9       18.375699   0.000000
   10       24.970515   0.000000
   11       27.403835   0.000000
   12       35.551446   0.000000
   13       40.429707   0.000000
   14       41.162702   0.000000
   15       41.162702   0.000000
   16       44.078498   0.000000
 
  0.4795918E+00  0.0000000E+00  0.4795918E+00  0.2000000E-02
    1        1.960807   1.000000
    2        2.251178   1.000000
    3        6.468700   1.000000
    4        6.798631   1.000000
    5        6.798631   1.000000
    6        9.498140   1.000000
    7       13.934396   0.000000
    8       18.328804   0.000000
    9       18.328804   0.000000
   10       24.985834   0.000000
   11       27.422405   0.000000
   12       35.520738   0.000000
   13       40.388060   0.000000
   14       41.479865   0.000000
   15       41.479865   0.000000
   16       44.241007   0.000000
 
  0.4897959E+00  0.0000000E+00  0.4897959E+00  0.2000000E-02
    1        1.956249   1.000000
    2        2.246322   1.000000
    3        6.472165   1.000000
    4        6.811311   1.000000
    5        6.811311   1.000000
    6        9.617188   1.000000
    7       13.791584   0.000000
    8       18.300551   0.000000
    9       18.300551   0.000000
   10       24.995139   0.000000
   11       27.433557   0.000000
   12       35.502288   0.000000
   13       40.362851   0.000000
   14       41.706697   0.000000
   15       41.706697   0.000000
   16       44.394014   0.000000
 
  0.5000000E+00  0.0000000E+00  0.5000000E+00  0.2000000E-02
    1        1.954723   1.000000
    2        2.244703   1.000000
    3        6.473322   1.000000
    4        6.815557   1.000000
    5        6.815557   1.000000
    6        9.658795   1.000000
    7       13.742089   0.000000
    8       18.291114   0.000000
    9       18.291115   0.000000
   10       24.998259   0.000000
   11       27.437276   0.000000
   12       35.496136   0.000000
   13       40.354412   0.000000
   14       41.791389   0.000000
   15       41.791389   0.000000
   16       44.391611   0.000000
 
  0.5000000E+00  0.0000000E+00  0.5000000E+00  0.2000000E-02
    1        1.954723   1.000000
    2        2.244703   1.000000
    3        6.473322   1.000000
    4        6.815557   1.000000
    5        6.815557   1.000000