       N       E                     dE             d eps       ncg     rms          rms(c)
DAV:   1     0.613752464926E+02    0.61375E+02   -0.56956E+03 16040   0.687E+02
DAV:   2    -0.431630842173E+00   -0.61807E+02   -0.57397E+02 21704   0.173E+02
DAV:   3    -0.146467514499E+01   -0.10330E+01   -0.10323E+01 20640   0.208E+01
DAV:   4    -0.146892708584E+01   -0.42519E-02   -0.42518E-02 20016   0.150E+00
DAV:   5    -0.146896288032E+01   -0.35794E-04   -0.35795E-04 21000   0.125E-01
DAV:   6    -0.146896322247E+01   -0.34215E-06   -0.34152E-06 19752   0.128E-02
DAV:   7    -0.146896322482E+01   -0.23523E-08   -0.33128E-08 19584   0.124E-03
   1 F= -.14689632E+01 E0= -.14689632E+01  d E =0.194879E-07
