PROCAR lm decomposed
# of k-points:  500         # of bands:   16         # of ions:    1

 k-point     1 :    0.00000000 0.00000000 0.00000000     weight = 0.00200000

band     1 # energy   -0.74735685 # occ.  2.00000000
 
ion      s     py     pz     px    dxy    dyz    dz2    dxz  x2-y2    tot
    1  0.573  0.000  0.000  0.000  0.000  0.000  0.000  0.000  0.000  0.573
 
band     2 # energy    4.09745408 # occ.  2.00000000
 
ion      s     py     pz     px    dxy    dyz    dz2    dxz  x2-y2    tot
    1  0.000  0.000  0.000  0.000  0.308  0.309  0.000  0.309  0.000  0.926
 
band     3 # energy    4.09745409 # occ.  2.00000000
 
ion      s     py     pz     px    dxy    dyz    dz2    dxz  x2-y2    tot
    1  0.000  0.000  0.000  0.000  0.606  0.222  0.000  0.098  0.000  0.926
 
band     4 # energy    4.09745409 # occ.  2.00000000
 
ion      s     py     pz     px    dxy    dyz    dz2    dxz  x2-y2    tot
    1  0.000  0.000  0.000  0.000  0.012  0.395  0.000  0.518  0.000  0.926
 
band     5 # energy    5.44109928 # occ.  2.00000000
 
ion      s     py     pz     px    dxy    dyz    dz2    dxz  x2-y2    tot
    1  0.000  0.000  0.000  0.000  0.000  0.000  0.015  0.000  0.947  0.961
 
band     6 # energy    5.44109928 # occ.  2.00000000
 
ion      s     py     pz     px    dxy    dyz    dz2    dxz  x2-y2    tot
    1  0.000  0.000  0.000  0.000  0.000  0.000  0.947  0.000  0.015  0.961
 
band     7 # energy   23.05190973 # occ.  0.00000000
 
ion      s     py     pz     px    dxy    dyz    dz2    dxz  x2-y2    tot
    1  0.000  0.000  0.000  0.000  0.000  0.000  0.000  0.000  0.000  0.000
 
band     8 # energy   26.69019103 # occ.  0.00000000
 
ion      s     py     pz     px    dxy    dyz    dz2    dxz  x2-y2    tot
    1  0.000  0.075  0.075  0.075  0.000  0.000  0.000  0.000  0.000  0.225
 
band     9 # energy   26.69019113 # occ.  0.00000000
 
ion      s     py     pz     px    dxy    dyz    dz2    dxz  x2-y2    tot
    1  0.000  0.112  0.000  0.112  0.000  0.000  0.000  0.000  0.000  0.225
 
band    10 # energy   26.69019113 # occ.  0.00000000
 
ion      s     py     pz     px    dxy    dyz    dz2    dxz  x2-y2    tot
    1  0.000  0.038  0.149  0.038  0.000  0.000  0.000  0.000  0.000  0.225
 
band    11 # energy   31.40073166 # occ.  0.00000000
 
ion      s     py     pz     px    dxy    dyz    dz2    dxz  x2-y2    tot
    1  0.076  0.000  0.000  0.000  0.000  0.000  0.000  0.000  0.000  0.076
 
band    12 # energy   35.38780468 # occ.  0.00000000
 
ion      s     py     pz     px    dxy    dyz    dz2    dxz  x2-y2    tot
    1  0.000  0.000  0.000  0.000  0.445  0.013  0.000  0.262  0.000  0.720
 
band    13 # energy   35.38780470 # occ.  0.00000000
 
ion      s     py     pz     px    dxy    dyz    dz2    dxz  x2-y2    tot
    1  0.000  0.000  0.000  0.000  0.274  0.014  0.000  0.432  0.000  0.720
 
band    14 # energy   35.38780503 # occ.  0.00000000
 
ion      s     py     pz     px    dxy    dyz    dz2    dxz  x2-y2    tot
    1  0.000  0.000  0.000  0.000  0.001  0.693  0.000  0.026  0.000  0.720
 
band    15 # energy   36.72768832 # occ.  0.00000000
 
ion      s     py     pz     px    dxy    dyz    dz2    dxz  x2-y2    tot
    1  0.000  0.148  0.414  0.136  0.000  0.000  0.000  0.000  0.000  0.698
 
band    16 # energy   36.72768859 # occ.  0.00000000
 
ion      s     py     pz     px    dxy    dyz    dz2    dxz  x2-y2    tot
    1  0.000  0.384  0.021  0.292  0.000  0.000  0.000  0.000  0.000  0.698
 

 k-point     2 :    0.01020408 0.00000000 0.01020408     weight = 0.00200000

band     1 # energy   -0.74276268 # occ.  2.00000000
 
ion      s     py     pz     px    dxy    dyz    dz2    dxz  x2-y2    tot
    1  0.573  0.000  0.000  0.000  0.000  0.000  0.000  0.000  0.000  0.573
 
band     2 # energy    4.09517586 # occ.  2.00000000
 
ion      s     py     pz     px    dxy    dyz    dz2    dxz  x2-y2    tot
    1  0.000  0.000  0.000  0.000  0.000  0.000  0.000  0.926  0.000  0.926
 
band     3 # energy    4.09943656 # occ.  2.00000000
 
ion      s     py     pz     px    dxy    dyz    dz2    dxz  x2-y2    tot
    1  0.000  0.000  0.000  0.000  0.461  0.465  0.000  0.000  0.000  0.926
 
band     4 # energy    4.09943657 # occ.  2.00000000
 
ion      s     py     pz     px    dxy    dyz    dz2    dxz  x2-y2    tot
    1  0.000  0.000  0.000  0.000  0.465  0.461  0.000  0.000  0.000  0.926
 
band     5 # energy    5.43869098 # occ.  2.00000000
 
ion      s     py     pz     px    dxy    dyz    dz2    dxz  x2-y2    tot
    1  0.000  0.000  0.000  0.000  0.000  0.000  0.240  0.000  0.721  0.961
 
band     6 # energy    5.44207586 # occ.  2.00000000
 
ion      s     py     pz     px    dxy    dyz    dz2    dxz  x2-y2    tot
    1  0.000  0.000  0.000  0.000  0.000  0.000  0.721  0.000  0.240  0.961
 
band     7 # energy   23.05709579 # occ.  0.00000000
 
ion      s     py     pz     px    dxy    dyz    dz2    dxz  x2-y2    tot
    1  0.000  0.000  0.000  0.000  0.000  0.000  0.000  0.001  0.000  0.001
 
band     8 # energy   26.67041890 # occ.  0.00000000
 
ion      s     py     pz     px    dxy    dyz    dz2    dxz  x2-y2    tot
    1  0.001  0.223  0.000  0.000  0.000  0.000  0.000  0.000  0.000  0.224
 
band     9 # energy   26.68641430 # occ.  0.00000000
 
ion      s     py     pz     px    dxy    dyz    dz2    dxz  x2-y2    tot
    1  0.000  0.000  0.113  0.113  0.000  0.000  0.000  0.000  0.000  0.226
 
band    10 # energy   26.68641437 # occ.  0.00000000
 
ion      s     py     pz     px    dxy    dyz    dz2    dxz  x2-y2    tot
    1  0.000  0.000  0.113  0.113  0.000  0.000  0.000  0.000  0.000  0.226
 
band    11 # energy   31.43429902 # occ.  0.00000000
 
ion      s     py     pz     px    dxy    dyz    dz2    dxz  x2-y2    tot
    1  0.075  0.003  0.000  0.000  0.000  0.000  0.000  0.000  0.000  0.078
 
band    12 # energy   35.29684066 # occ.  0.00000000
 
ion      s     py     pz     px    dxy    dyz    dz2    dxz  x2-y2    tot
    1  0.000  0.000  0.008  0.033  0.540  0.128  0.000  0.000  0.000  0.709
 
band    13 # energy   35.29684071 # occ.  0.00000000
 
ion      s     py     pz     px    dxy    dyz    dz2    dxz  x2-y2    tot
    1  0.000  0.000  0.033  0.008  0.128  0.540  0.000  0.000  0.000  0.709
 
band    14 # energy   35.39157459 # occ.  0.00000000
 
ion      s     py     pz     px    dxy    dyz    dz2    dxz  x2-y2    tot
    1  0.000  0.000  0.000  0.000  0.000  0.000  0.000  0.719  0.000  0.719
 
band    15 # energy   36.67576573 # occ.  0.00000000
 
ion      s     py     pz     px    dxy    dyz    dz2    dxz  x2-y2    tot
    1  0.002  0.684  0.006  0.002  0.000  0.000  0.001  0.000  0.002  0.697
 
band    16 # energy   36.82673947 # occ.  0.00000000
 
ion      s     py     pz     px    dxy    dyz    dz2    dxz  x2-y2    tot
    1  0.000  0.000  0.159  0.496  0.038  0.012  0.000  0.000  0.000  0.706
 

 k-point     3 :    0.02040816 0.00000000 0.02040816     weight = 0.00200000

band     1 # energy   -0.72893943 # occ.  2.00000000
 
ion      s     py     pz     px    dxy    dyz    dz2    dxz  x2-y2    tot
    1  0.572  0.001  0.000  0.000  0.000  0.000  0.000  0.000  0.000  0.573
 
band     2 # energy    4.08835676 # occ.  2.00000000
 
ion      s     py     pz     px    dxy    dyz    dz2    dxz  x2-y2    tot
    1  0.000  0.000  0.000  0.000  0.000  0.000  0.000  0.925  0.000  0.925
 
band     3 # energy    4.10538494 # occ.  2.00000000
 
ion      s     py     pz     px    dxy    dyz    dz2    dxz  x2-y2    tot
    1  0.000  0.000  0.000  0.000  0.461  0.465  0.000  0.000  0.000  0.926
 
band     4 # energy    4.10538495 # occ.  2.00000000
 
ion      s     py     pz     px    dxy    dyz    dz2    dxz  x2-y2    tot
    1  0.000  0.000  0.000  0.000  0.465  0.461  0.000  0.000  0.000  0.926
 
band     5 # energy    5.43146998 # occ.  2.00000000
 
ion      s     py     pz     px    dxy    dyz    dz2    dxz  x2-y2    tot
    1  0.000  0.000  0.000  0.000  0.000  0.000  0.240  0.000  0.721  0.961
 
band     6 # energy    5.44500455 # occ.  2.00000000
 
ion      s     py     pz     px    dxy    dyz    dz2    dxz  x2-y2    tot
    1  0.000  0.000  0.000  0.000  0.000  0.000  0.721  0.000  0.240  0.961
 
band     7 # energy   23.07262519 # occ.  0.00000000
 
ion      s     py     pz     px    dxy    dyz    dz2    dxz  x2-y2    tot
    1  0.000  0.000  0.000  0.000  0.000  0.000  0.000  0.002  0.000  0.002
 
band     8 # energy   26.61290884 # occ.  0.00000000
 
ion      s     py     pz     px    dxy    dyz    dz2    dxz  x2-y2    tot
    1  0.004  0.217  0.000  0.000  0.000  0.000  0.000  0.000  0.001  0.222
 
band     9 # energy   26.67490484 # occ.  0.00000000
 
ion      s     py     pz     px    dxy    dyz    dz2    dxz  x2-y2    tot
    1  0.000  0.000  0.114  0.115  0.001  0.001  0.000  0.000  0.000  0.231
 
band    10 # energy   26.67490492 # occ.  0.00000000
 
ion      s     py     pz     px    dxy    dyz    dz2    dxz  x2-y2    tot
    1  0.000  0.000  0.115  0.114  0.001  0.001  0.000  0.000  0.000  0.231
 
band    11 # energy   31.53304979 # occ.  0.00000000
 
ion      s     py     pz     px    dxy    dyz    dz2    dxz  x2-y2    tot
    1  0.072  0.010  0.000  0.000  0.000  0.000  0.000  0.000  0.000  0.082
 
band    12 # energy   35.07836648 # occ.  0.00000000
 
ion      s     py     pz     px    dxy    dyz    dz2    dxz  x2-y2    tot
    1  0.000  0.000  0.051  0.055  0.302  0.279  0.000  0.000  0.000  0.687
 
band    13 # energy   35.07836653 # occ.  0.00000000
 
ion      s     py     pz     px    dxy    dyz    dz2    dxz  x2-y2    tot
    1  0.000  0.000  0.055  0.051  0.279  0.302  0.000  0.000  0.000  0.687
 
band    14 # energy   35.40289269 # occ.  0.00000000
 
ion      s     py     pz     px    dxy    dyz    dz2    dxz  x2-y2    tot
    1  0.000  0.000  0.000  0.000  0.000  0.000  0.000  0.718  0.000  0.718
 
band    15 # energy   36.51709042 # occ.  0.00000000
 
ion      s     py     pz     px    dxy    dyz    dz2    dxz  x2-y2    tot
    1  0.009  0.681  0.000  0.000  0.000  0.000  0.003  0.000  0.008  0.701
 
band    16 # energy   37.06962638 # occ.  0.00000000
 
ion      s     py     pz     px    dxy    dyz    dz2    dxz  x2-y2    tot
    1  0.000  0.000  0.232  0.355  0.081  0.053  0.000  0.000  0.000  0.720
 

 k-point     4 :    0.03061224 0.00000000 0.03061224     weight = 0.00200000

band     1 # energy   -0.70591051 # occ.  2.00000000
 
ion      s     py     pz     px    dxy    dyz    dz2    dxz  x2-y2    tot
    1  0.572  0.002  0.000  0.000  0.000  0.000  0.000  0.000  0.000  0.573
 
band     2 # energy    4.07705060 # occ.  2.00000000
 
ion      s     py     pz     px    dxy    dyz    dz2    dxz  x2-y2    tot
    1  0.000  0.000  0.000  0.000  0.000  0.000  0.000  0.925  0.000  0.925
 
band     3 # energy    4.11529666 # occ.  2.00000000
 
ion      s     py     pz     px    dxy    dyz    dz2    dxz  x2-y2    tot
    1  0.000  0.000  0.000  0.000  0.461  0.465  0.000  0.000  0.000  0.926
 
band     4 # energy    4.11529667 # occ.  2.00000000
 
ion      s     py     pz     px    dxy    dyz    dz2    dxz  x2-y2    tot
    1  0.000  0.000  0.000  0.000  0.465  0.461  0.000  0.000  0.000  0.926
 
band     5 # energy    5.41948641 # occ.  2.00000000
 
ion      s     py     pz     px    dxy    dyz    dz2    dxz  x2-y2    tot
    1  0.000  0.000  0.000  0.000  0.000  0.000  0.240  0.000  0.720  0.960
 
band     6 # energy    5.44987448 # occ.  2.00000000
 
ion      s     py     pz     px    dxy    dyz    dz2    dxz  x2-y2    tot
    1  0.000  0.000  0.000  0.000  0.000  0.000  0.721  0.000  0.240  0.961
 
band     7 # energy   23.09841096 # occ.  0.00000000
 
ion      s     py     pz     px    dxy    dyz    dz2    dxz  x2-y2    tot
    1  0.000  0.000  0.000  0.000  0.000  0.000  0.000  0.005  0.000  0.005
 
band     8 # energy   26.52252910 # occ.  0.00000000
 
ion      s     py     pz     px    dxy    dyz    dz2    dxz  x2-y2    tot
    1  0.007  0.208  0.000  0.000  0.000  0.000  0.001  0.000  0.002  0.219
 
band     9 # energy   26.65512056 # occ.  0.00000000
 
ion      s     py     pz     px    dxy    dyz    dz2    dxz  x2-y2    tot
    1  0.000  0.000  0.116  0.117  0.003  0.003  0.000  0.000  0.000  0.239
 
band    10 # energy   26.65512063 # occ.  0.00000000
 
ion      s     py     pz     px    dxy    dyz    dz2    dxz  x2-y2    tot
    1  0.000  0.000  0.117  0.116  0.003  0.003  0.000  0.000  0.000  0.239
 
band    11 # energy   31.69162020 # occ.  0.00000000
 
ion      s     py     pz     px    dxy    dyz    dz2    dxz  x2-y2    tot
    1  0.067  0.022  0.000  0.000  0.000  0.000  0.000  0.000  0.000  0.090
 
band    12 # energy   34.80666856 # occ.  0.00000000
 
ion      s     py     pz     px    dxy    dyz    dz2    dxz  x2-y2    tot
    1  0.000  0.000  0.075  0.077  0.259  0.251  0.000  0.000  0.000  0.662
 
band    13 # energy   34.80666861 # occ.  0.00000000
 
ion      s     py     pz     px    dxy    dyz    dz2    dxz  x2-y2    tot
    1  0.000  0.000  0.077  0.075  0.251  0.259  0.000  0.000  0.000  0.662
 
band    14 # energy   35.42177766 # occ.  0.00000000
 
ion      s     py     pz     px    dxy    dyz    dz2    dxz  x2-y2    tot
    1  0.000  0.000  0.000  0.000  0.000  0.000  0.000  0.716  0.000  0.716
 
band    15 # energy   36.26852474 # occ.  0.00000000
 
ion      s     py     pz     px    dxy    dyz    dz2    dxz  x2-y2    tot
    1  0.019  0.663  0.000  0.000  0.000  0.000  0.005  0.000  0.016  0.703
 
band    16 # energy   37.38248221 # occ.  0.00000000
 
ion      s     py     pz     px    dxy    dyz    dz2    dxz  x2-y2    tot
    1  0.000  0.000  0.010  0.525  0.196  0.004  0.000  0.000  0.000  0.734
 

 k-point     5 :    0.04081633 0.00000000 0.04081633     weight = 0.00200000

band     1 # energy   -0.67372156 # occ.  2.00000000
 
ion      s     py     pz     px    dxy    dyz    dz2    dxz  x2-y2    tot
    1  0.570  0.003  0.000  0.000  0.000  0.000  0.000  0.000  0.000  0.573
 
band     2 # energy    4.06132884 # occ.  2.00000000
 
ion      s     py     pz     px    dxy    dyz    dz2    dxz  x2-y2    tot
    1  0.000  0.000  0.000  0.000  0.000  0.000  0.000  0.924  0.000  0.924
 
band     3 # energy    4.12915305 # occ.  2.00000000
 
ion      s     py     pz     px    dxy    dyz    dz2    dxz  x2-y2    tot
    1  0.000  0.000  0.000  0.000  0.461  0.465  0.000  0.000  0.000  0.926
 
band     4 # energy    4.12915306 # occ.  2.00000000
 
ion      s     py     pz     px    dxy    dyz    dz2    dxz  x2-y2    tot
    1  0.000  0.000  0.000  0.000  0.465  0.461  0.000  0.000  0.000  0.926
 
band     5 # energy    5.40283447 # occ.  2.00000000
 
ion      s     py     pz     px    dxy    dyz    dz2    dxz  x2-y2    tot
    1  0.000  0.000  0.000  0.000  0.000  0.000  0.240  0.000  0.720  0.959
 
band     6 # energy    5.45666879 # occ.  2.00000000
 
ion      s     py     pz     px    dxy    dyz    dz2    dxz  x2-y2    tot
    1  0.000  0.000  0.000  0.000  0.000  0.000  0.721  0.000  0.240  0.962
 
band     7 # energy   23.13431045 # occ.  0.00000000
 
ion      s     py     pz     px    dxy    dyz    dz2    dxz  x2-y2    tot
    1  0.000  0.000  0.000  0.000  0.000  0.000  0.000  0.008  0.000  0.008
 
band     8 # energy   26.40593619 # occ.  0.00000000
 
ion      s     py     pz     px    dxy    dyz    dz2    dxz  x2-y2    tot
    1  0.012  0.198  0.000  0.000  0.000  0.000  0.001  0.000  0.004  0.215
 
band     9 # energy   26.62620019 # occ.  0.00000000
 
ion      s     py     pz     px    dxy    dyz    dz2    dxz  x2-y2    tot
    1  0.000  0.000  0.120  0.120  0.005  0.005  0.000  0.000  0.000  0.250
 
band    10 # energy   26.62620026 # occ.  0.00000000
 
ion      s     py     pz     px    dxy    dyz    dz2    dxz  x2-y2    tot
    1  0.000  0.000  0.120  0.120  0.005  0.005  0.000  0.000  0.000  0.250
 
band    11 # energy   31.90233505 # occ.  0.00000000
 
ion      s     py     pz     px    dxy    dyz    dz2    dxz  x2-y2    tot
    1  0.061  0.039  0.000  0.000  0.000  0.000  0.000  0.000  0.000  0.100
 
band    12 # energy   34.51975734 # occ.  0.00000000
 
ion      s     py     pz     px    dxy    dyz    dz2    dxz  x2-y2    tot
    1  0.000  0.000  0.089  0.090  0.229  0.227  0.000  0.000  0.000  0.634
 
band    13 # energy   34.51975740 # occ.  0.00000000
 
ion      s     py     pz     px    dxy    dyz    dz2    dxz  x2-y2    tot
    1  0.000  0.000  0.090  0.089  0.227  0.229  0.000  0.000  0.000  0.634
 
band    14 # energy   35.44827564 # occ.  0.00000000
 
ion      s     py     pz     px    dxy    dyz    dz2    dxz  x2-y2    tot
    1  0.000  0.000  0.000  0.000  0.000  0.000  0.000  0.714  0.000  0.714
 
band    15 # energy   35.94401768 # occ.  0.00000000
 
ion      s     py     pz     px    dxy    dyz    dz2    dxz  x2-y2    tot
    1  0.032  0.640  0.000  0.000  0.000  0.000  0.008  0.000  0.025  0.705
 
band    16 # energy   37.72802526 # occ.  0.00000000
 
ion      s     py     pz     px    dxy    dyz    dz2    dxz  x2-y2    tot
    1  0.000  0.000  0.364  0.135  0.066  0.179  0.000  0.000  0.000  0.744
 

 k-point     6 :    0.05102041 0.00000000 0.05102041     weight = 0.00200000

band     1 # energy   -0.63244319 # occ.  2.00000000
 
ion      s     py     pz     px    dxy    dyz    dz2    dxz  x2-y2    tot
    1  0.569  0.004  0.000  0.000  0.000  0.000  0.000  0.000  0.000  0.573
 
band     2 # energy    4.04129427 # occ.  2.00000000
 
ion      s     py     pz     px    dxy    dyz    dz2    dxz  x2-y2    tot
    1  0.000  0.000  0.000  0.000  0.000  0.000  0.000  0.923  0.000  0.923
 
band     3 # energy    4.14693752 # occ.  2.00000000
 
ion      s     py     pz     px    dxy    dyz    dz2    dxz  x2-y2    tot
    1  0.000  0.000  0.000  0.000  0.460  0.465  0.000  0.000  0.000  0.926
 
band     4 # energy    4.14693753 # occ.  2.00000000
 
ion      s     py     pz     px    dxy    dyz    dz2    dxz  x2-y2    tot
    1  0.000  0.000  0.000  0.000  0.465  0.460  0.000  0.000  0.000  0.926
 
band     5 # energy    5.38166508 # occ.  2.00000000
 
ion      s     py     pz     px    dxy    dyz    dz2    dxz  x2-y2    tot
    1  0.000  0.000  0.000  0.000  0.000  0.000  0.240  0.000  0.719  0.958
 
band     6 # energy    5.46536572 # occ.  2.00000000
 
ion      s     py     pz     px    dxy    dyz    dz2    dxz  x2-y2    tot
    1  0.000  0.000  0.000  0.000  0.000  0.000  0.721  0.000  0.240  0.962
 
band     7 # energy   23.18012588 # occ.  0.00000000
 
ion      s     py     pz     px    dxy    dyz    dz2    dxz  x2-y2    tot
    1  0.000  0.000  0.000  0.000  0.000  0.000  0.000  0.013  0.000  0.013
 
band     8 # energy   26.27019534 # occ.  0.00000000
 
ion      s     py     pz     px    dxy    dyz    dz2    dxz  x2-y2    tot
    1  0.018  0.186  0.000  0.000  0.000  0.000  0.002  0.000  0.006  0.212
 
band     9 # energy   26.58697089 # occ.  0.00000000
 
ion      s     py     pz     px    dxy    dyz    dz2    dxz  x2-y2    tot
    1  0.000  0.000  0.124  0.124  0.008  0.008  0.000  0.000  0.000  0.264
 
band    10 # energy   26.58697096 # occ.  0.00000000
 
ion      s     py     pz     px    dxy    dyz    dz2    dxz  x2-y2    tot
    1  0.000  0.000  0.124  0.124  0.008  0.008  0.000  0.000  0.000  0.264
 
band    11 # energy   32.15607110 # occ.  0.00000000
 
ion      s     py     pz     px    dxy    dyz    dz2    dxz  x2-y2    tot
    1  0.053  0.061  0.000  0.000  0.000  0.000  0.000  0.000  0.000  0.114
 
band    12 # energy   34.23496143 # occ.  0.00000000
 
ion      s     py     pz     px    dxy    dyz    dz2    dxz  x2-y2    tot
    1  0.000  0.000  0.095  0.097  0.208  0.204  0.000  0.000  0.000  0.604
 
band    13 # energy   34.23496149 # occ.  0.00000000
 
ion      s     py     pz     px    dxy    dyz    dz2    dxz  x2-y2    tot
    1  0.000  0.000  0.097  0.095  0.204  0.208  0.000  0.000  0.000  0.604
 
band    14 # energy   35.48244789 # occ.  0.00000000
 
ion      s     py     pz     px    dxy    dyz    dz2    dxz  x2-y2    tot
    1  0.000  0.000  0.000  0.000  0.000  0.000  0.000  0.710  0.000  0.710
 
band    15 # energy   35.56066814 # occ.  0.00000000
 
ion      s     py     pz     px    dxy    dyz    dz2    dxz  x2-y2    tot
    1  0.046  0.611  0.000  0.000  0.000  0.000  0.011  0.000  0.034  0.703
 
band    16 # energy   38.08990613 # occ.  0.00000000
 
ion      s     py     pz     px    dxy    dyz    dz2    dxz  x2-y2    tot
    1  0.000  0.000  0.445  0.028  0.016  0.262  0.000  0.000  0.000  0.751
 

 k-point     7 :    0.06122449 0.00000000 0.06122449     weight = 0.00200000

band     1 # energy   -0.58220378 # occ.  2.00000000
 
ion      s     py     pz     px    dxy    dyz    dz2    dxz  x2-y2    tot
    1  0.567  0.006  0.000  0.000  0.000  0.000  0.000  0.000  0.000  0.573
 
band     2 # energy    4.01708186 # occ.  2.00000000
 
ion      s     py     pz     px    dxy    dyz    dz2    dxz  x2-y2    tot
    1  0.000  0.000  0.000  0.000  0.000  0.000  0.000  0.922  0.000  0.922
 
band     3 # energy    4.16863481 # occ.  2.00000000
 
ion      s     py     pz     px    dxy    dyz    dz2    dxz  x2-y2    tot
    1  0.000  0.000  0.001  0.000  0.460  0.465  0.000  0.000  0.000  0.926
 
band     4 # energy    4.16863482 # occ.  2.00000000
 
ion      s     py     pz     px    dxy    dyz    dz2    dxz  x2-y2    tot
    1  0.000  0.000  0.000  0.001  0.465  0.460  0.000  0.000  0.000  0.926
 
band     5 # energy    5.35615044 # occ.  2.00000000
 
ion      s     py     pz     px    dxy    dyz    dz2    dxz  x2-y2    tot
    1  0.000  0.000  0.000  0.000  0.000  0.000  0.239  0.000  0.718  0.957
 
band     6 # energy    5.47593824 # occ.  2.00000000
 
ion      s     py     pz     px    dxy    dyz    dz2    dxz  x2-y2    tot
    1  0.000  0.000  0.000  0.000  0.000  0.000  0.721  0.000  0.240  0.962
 
band     7 # energy   23.23560972 # occ.  0.00000000
 
ion      s     py     pz     px    dxy    dyz    dz2    dxz  x2-y2    tot
    1  0.000  0.000  0.000  0.000  0.000  0.000  0.000  0.019  0.000  0.019
 
band     8 # energy   26.12183222 # occ.  0.00000000
 
ion      s     py     pz     px    dxy    dyz    dz2    dxz  x2-y2    tot
    1  0.023  0.174  0.000  0.000  0.000  0.000  0.003  0.000  0.009  0.209
 
band     9 # energy   26.53599189 # occ.  0.00000000
 
ion      s     py     pz     px    dxy    dyz    dz2    dxz  x2-y2    tot
    1  0.000  0.000  0.129  0.130  0.012  0.012  0.000  0.000  0.000  0.282
 
band    10 # energy   26.53599196 # occ.  0.00000000
 
ion      s     py     pz     px    dxy    dyz    dz2    dxz  x2-y2    tot
    1  0.000  0.000  0.130  0.129  0.012  0.012  0.000  0.000  0.000  0.282
 
band    11 # energy   32.44171664 # occ.  0.00000000
 
ion      s     py     pz     px    dxy    dyz    dz2    dxz  x2-y2    tot
    1  0.043  0.092  0.000  0.000  0.000  0.000  0.000  0.000  0.000  0.135
 
band    12 # energy   33.96150177 # occ.  0.00000000
 
ion      s     py     pz     px    dxy    dyz    dz2    dxz  x2-y2    tot
    1  0.000  0.000  0.098  0.100  0.189  0.186  0.000  0.000  0.000  0.572
 
band    13 # energy   33.96150183 # occ.  0.00000000
 
ion      s     py     pz     px    dxy    dyz    dz2    dxz  x2-y2    tot
    1  0.000  0.000  0.100  0.098  0.186  0.189  0.000  0.000  0.000  0.572
 
band    14 # energy   35.13654065 # occ.  0.00000000
 
ion      s     py     pz     px    dxy    dyz    dz2    dxz  x2-y2    tot
    1  0.062  0.573  0.000  0.000  0.000  0.000  0.014  0.000  0.043  0.693
 
band    15 # energy   35.52437020 # occ.  0.00000000
 
ion      s     py     pz     px    dxy    dyz    dz2    dxz  x2-y2    tot
    1  0.000  0.000  0.000  0.000  0.000  0.000  0.000  0.706  0.000  0.706
 
band    16 # energy   38.46009767 # occ.  0.00000000
 
ion      s     py     pz     px    dxy    dyz    dz2    dxz  x2-y2    tot
    1  0.000  0.000  0.262  0.192  0.128  0.175  0.000  0.000  0.000  0.756
 

 k-point     8 :    0.07142857 0.00000000 0.07142857     weight = 0.00200000

band     1 # energy   -0.52306326 # occ.  2.00000000
 
ion      s     py     pz     px    dxy    dyz    dz2    dxz  x2-y2    tot
    1  0.564  0.008  0.000  0.000  0.000  0.000  0.000  0.000  0.000  0.573
 
band     2 # energy    3.98885480 # occ.  2.00000000
 
ion      s     py     pz     px    dxy    dyz    dz2    dxz  x2-y2    tot
    1  0.000  0.000  0.000  0.000  0.000  0.000  0.000  0.920  0.000  0.920
 
band     3 # energy    4.19422500 # occ.  2.00000000
 
ion      s     py     pz     px    dxy    dyz    dz2    dxz  x2-y2    tot
    1  0.000  0.000  0.001  0.001  0.460  0.465  0.000  0.000  0.000  0.926
 
band     4 # energy    4.19422500 # occ.  2.00000000
 
ion      s     py     pz     px    dxy    dyz    dz2    dxz  x2-y2    tot
    1  0.000  0.000  0.001  0.001  0.465  0.460  0.000  0.000  0.000  0.926
 
band     5 # energy    5.32650120 # occ.  2.00000000
 
ion      s     py     pz     px    dxy    dyz    dz2    dxz  x2-y2    tot
    1  0.000  0.000  0.000  0.000  0.000  0.000  0.239  0.000  0.716  0.955
 
band     6 # energy    5.48835257 # occ.  2.00000000
 
ion      s     py     pz     px    dxy    dyz    dz2    dxz  x2-y2    tot
    1  0.000  0.000  0.000  0.000  0.000  0.000  0.721  0.000  0.240  0.962
 
band     7 # energy   23.30045325 # occ.  0.00000000
 
ion      s     py     pz     px    dxy    dyz    dz2    dxz  x2-y2    tot
    1  0.000  0.000  0.000  0.000  0.000  0.000  0.000  0.025  0.000  0.025
 
band     8 # energy   25.96638662 # occ.  0.00000000
 
ion      s     py     pz     px    dxy    dyz    dz2    dxz  x2-y2    tot
    1  0.028  0.163  0.000  0.000  0.000  0.000  0.004  0.000  0.012  0.207
 
band     9 # energy   26.47162329 # occ.  0.00000000
 
ion      s     py     pz     px    dxy    dyz    dz2    dxz  x2-y2    tot
    1  0.000  0.000  0.135  0.136  0.016  0.016  0.000  0.000  0.000  0.302
 
band    10 # energy   26.47162336 # occ.  0.00000000
 
ion      s     py     pz     px    dxy    dyz    dz2    dxz  x2-y2    tot
    1  0.000  0.000  0.136  0.135  0.016  0.016  0.000  0.000  0.000  0.302
 
band    11 # energy   32.74142310 # occ.  0.00000000
 
ion      s     py     pz     px    dxy    dyz    dz2    dxz  x2-y2    tot
    1  0.029  0.146  0.000  0.000  0.000  0.000  0.000  0.000  0.000  0.176
 
band    12 # energy   33.70532226 # occ.  0.00000000
 
ion      s     py     pz     px    dxy    dyz    dz2    dxz  x2-y2    tot
    1  0.000  0.000  0.098  0.100  0.173  0.168  0.000  0.000  0.000  0.538
 
band    13 # energy   33.70532232 # occ.  0.00000000
 
ion      s     py     pz     px    dxy    dyz    dz2    dxz  x2-y2    tot
    1  0.000  0.000  0.100  0.098  0.168  0.173  0.000  0.000  0.000  0.538
 
band    14 # energy   34.69509452 # occ.  0.00000000
 
ion      s     py     pz     px    dxy    dyz    dz2    dxz  x2-y2    tot
    1  0.081  0.513  0.000  0.000  0.000  0.000  0.017  0.000  0.052  0.664
 
band    15 # energy   35.57412296 # occ.  0.00000000
 
ion      s     py     pz     px    dxy    dyz    dz2    dxz  x2-y2    tot
    1  0.000  0.000  0.000  0.000  0.000  0.000  0.000  0.701  0.000  0.701
 
band    16 # energy   38.83396562 # occ.  0.00000000
 
ion      s     py     pz     px    dxy    dyz    dz2    dxz  x2-y2    tot
    1  0.000  0.000  0.354  0.084  0.061  0.259  0.000  0.000  0.000  0.759
 

 k-point     9 :    0.08163265 0.00000000 0.08163265     weight = 0.00200000

band     1 # energy   -0.45515370 # occ.  2.00000000
 
ion      s     py     pz     px    dxy    dyz    dz2    dxz  x2-y2    tot
    1  0.561  0.011  0.000  0.000  0.000  0.000  0.000  0.000  0.000  0.573
 
band     2 # energy    3.95678904 # occ.  2.00000000
 
ion      s     py     pz     px    dxy    dyz    dz2    dxz  x2-y2    tot
    1  0.000  0.000  0.000  0.000  0.000  0.000  0.000  0.918  0.000  0.918
 
band     3 # energy    4.22367003 # occ.  2.00000000
 
ion      s     py     pz     px    dxy    dyz    dz2    dxz  x2-y2    tot
    1  0.000  0.000  0.001  0.001  0.460  0.464  0.000  0.000  0.000  0.926
 
band     4 # energy    4.22367004 # occ.  2.00000000
 
ion      s     py     pz     px    dxy    dyz    dz2    dxz  x2-y2    tot
    1  0.000  0.000  0.001  0.001  0.464  0.460  0.000  0.000  0.000  0.926
 
band     5 # energy    5.29297493 # occ.  2.00000000
 
ion      s     py     pz     px    dxy    dyz    dz2    dxz  x2-y2    tot
    1  0.000  0.000  0.000  0.000  0.000  0.000  0.238  0.000  0.715  0.953
 
band     6 # energy    5.50256748 # occ.  2.00000000
 
ion      s     py     pz     px    dxy    dyz    dz2    dxz  x2-y2    tot
    1  0.000  0.000  0.000  0.000  0.000  0.000  0.722  0.000  0.241  0.962
 
band     7 # energy   23.37430599 # occ.  0.00000000
 
ion      s     py     pz     px    dxy    dyz    dz2    dxz  x2-y2    tot
    1  0.000  0.000  0.000  0.000  0.000  0.000  0.000  0.033  0.000  0.033
 
band     8 # energy   25.80835688 # occ.  0.00000000
 
ion      s     py     pz     px    dxy    dyz    dz2    dxz  x2-y2    tot
    1  0.033  0.152  0.000  0.000  0.000  0.000  0.005  0.000  0.015  0.206
 
band     9 # energy   26.39216054 # occ.  0.00000000
 
ion      s     py     pz     px    dxy    dyz    dz2    dxz  x2-y2    tot
    1  0.000  0.000  0.142  0.143  0.021  0.020  0.000  0.000  0.000  0.325
 
band    10 # energy   26.39216061 # occ.  0.00000000
 
ion      s     py     pz     px    dxy    dyz    dz2    dxz  x2-y2    tot
    1  0.000  0.000  0.143  0.142  0.020  0.021  0.000  0.000  0.000  0.325
 
band    11 # energy   33.00704033 # occ.  0.00000000
 
ion      s     py     pz     px    dxy    dyz    dz2    dxz  x2-y2    tot
    1  0.010  0.271  0.000  0.000  0.000  0.000  0.000  0.000  0.001  0.282
 
band    12 # energy   33.47083920 # occ.  0.00000000
 
ion      s     py     pz     px    dxy    dyz    dz2    dxz  x2-y2    tot
    1  0.000  0.000  0.095  0.097  0.156  0.153  0.000  0.000  0.000  0.502
 
band    13 # energy   33.47083926 # occ.  0.00000000
 
ion      s     py     pz     px    dxy    dyz    dz2    dxz  x2-y2    tot
    1  0.000  0.000  0.097  0.095  0.153  0.156  0.000  0.000  0.000  0.502
 