    1    1    1    1
  0.1814474E+02  0.2949546E-09  0.2949546E-09  0.2949546E-09  0.5000000E-15
  1.000000000000000E-004
  CAR 
 Au                                      
     11    500     24
 
  0.0000000E+00  0.0000000E+00  0.0000000E+00  0.2000000E-02
    1       -0.750589   1.000000
    2       -0.750589   1.000000
    3        3.439403   1.000000
    4        3.439403   1.000000
    5        3.439403   1.000000
    6        3.439403   1.000000
    7        4.645735   1.000000
    8        4.645735   1.000000
    9        5.698695   1.000000
   10        5.698695   1.000000
   11        5.698695   1.000000
   12        5.698695   1.000000
   13       23.052606   0.000000
   14       23.052606   0.000000
   15       25.804371   0.000000
   16       25.804371   0.000000
   17       26.976184   0.000000
   18       26.976184   0.000000
   19       26.976184   0.000000
   20       26.976184   0.000000
   21       31.409225   0.000000
   22       31.409225   0.000000
   23       34.295916   0.000000
   24       34.298045   0.000000
 
  0.1020408E-01  0.0000000E+00  0.1020408E-01  0.2000000E-02
    1       -0.746019   1.000000
    2       -0.746019   1.000000
    3        3.438868   1.000000
    4        3.438868   1.000000
    5        3.440743   1.000000
    6        3.440743   1.000000
    7        4.646311   1.000000
    8        4.646311   1.000000
    9        5.696857   1.000000
   10        5.696857   1.000000
   11        5.699396   1.000000
   12        5.699396   1.000000
   13       23.057780   0.000000
   14       23.057780   0.000000
   15       25.795590   0.000000
   16       25.795590   0.000000
   17       26.959716   0.000000
   18       26.959716   0.000000
   19       26.973821   0.000000
   20       26.973821   0.000000
   21       31.440640   0.000000
   22       31.440640   0.000000
   23       34.207776   0.000000
   24       34.208460   0.000000
 
  0.2040816E-01  0.0000000E+00  0.2040816E-01  0.2000000E-02
    1       -0.732269   1.000000
    2       -0.732269   1.000000
    3        3.437235   1.000000
    4        3.437235   1.000000
    5        3.444752   1.000000
    6        3.444752   1.000000
    7        4.648071   1.000000
    8        4.648071   1.000000
    9        5.691362   1.000000
   10        5.691362   1.000000
   11        5.701511   1.000000
   12        5.701511   1.000000
   13       23.073272   0.000000
   14       23.073272   0.000000
   15       25.769248   0.000000
   16       25.769248   0.000000
   17       26.911829   0.000000
   18       26.911829   0.000000
   19       26.966564   0.000000
   20       26.966564   0.000000
   21       31.532660   0.000000
   22       31.532660   0.000000
   23       34.005486   0.000000
   24       34.005836   0.000000
 
  0.3061224E-01  0.0000000E+00  0.3061224E-01  0.2000000E-02
    1       -0.709361   1.000000
    2       -0.709361   1.000000
    3        3.434422   1.000000
    4        3.434422   1.000000
    5        3.451402   1.000000
    6        3.451402   1.000000
    7        4.651111   1.000000
    8        4.651111   1.000000
    9        5.682286   1.000000
   10        5.682286   1.000000
   11        5.705066   1.000000
   12        5.705066   1.000000
   13       23.098996   0.000000
   14       23.098996   0.000000
   15       25.725392   0.000000
   16       25.725392   0.000000
   17       26.836513   0.000000
   18       26.836513   0.000000
   19       26.953898   0.000000
   20       26.953898   0.000000
   21       31.678771   0.000000
   22       31.678771   0.000000
   23       33.764381   0.000000
   24       33.764592   0.000000
 
  0.4081633E-01  0.0000000E+00  0.4081633E-01  0.2000000E-02
    1       -0.677344   1.000000
    2       -0.677344   1.000000
    3        3.430283   1.000000
    4        3.430283   1.000000
    5        3.460630   1.000000
    6        3.460630   1.000000
    7        4.655573   1.000000
    8        4.655573   1.000000
    9        5.669768   1.000000
   10        5.669768   1.000000
   11        5.710101   1.000000
   12        5.710101   1.000000
   13       23.134808   0.000000
   14       23.134808   0.000000
   15       25.664303   0.000000
   16       25.664303   0.000000
   17       26.738940   0.000000
   18       26.738940   0.000000
   19       26.934997   0.000000
   20       26.934997   0.000000
   21       31.867873   0.000000
   22       31.867873   0.000000
   23       33.520740   0.000000
   24       33.520843   0.000000
 
  0.5102041E-01  0.0000000E+00  0.5102041E-01  0.2000000E-02
    1       -0.636288   1.000000
    2       -0.636288   1.000000
    3        3.424629   1.000000
    4        3.424629   1.000000
    5        3.472362   1.000000
    6        3.472362   1.000000
    7        4.661653   1.000000
    8        4.661653   1.000000
    9        5.654021   1.000000
   10        5.654021   1.000000
   11        5.716671   1.000000
   12        5.716671   1.000000
   13       23.180508   0.000000
   14       23.180508   0.000000
   15       25.586671   0.000000
   16       25.586671   0.000000
   17       26.624047   0.000000
   18       26.624047   0.000000
   19       26.908710   0.000000
   20       26.908710   0.000000
   21       32.080475   0.000000
   22       32.080475   0.000000
   23       33.300094   0.000000
   24       33.300212   0.000000
 
  0.6122449E-01  0.0000000E+00  0.6122449E-01  0.2000000E-02
    1       -0.586323   1.000000
    2       -0.586323   1.000000
    3        3.417240   1.000000
    4        3.417240   1.000000
    5        3.486500   1.000000
    6        3.486500   1.000000
    7        4.669596   1.000000
    8        4.669596   1.000000
    9        5.635305   1.000000
   10        5.635305   1.000000
   11        5.724842   1.000000
   12        5.724842   1.000000
   13       23.235847   0.000000
   14       23.235847   0.000000
   15       25.493717   0.000000
   16       25.493717   0.000000
   17       26.495597   0.000000
   18       26.495597   0.000000
   19       26.873581   0.000000
   20       26.873581   0.000000
   21       32.271389   0.000000
   22       32.271389   0.000000
   23       33.146037   0.000000
   24       33.146061   0.000000
 
  0.7142857E-01  0.0000000E+00  0.7142857E-01  0.2000000E-02
    1       -0.527511   1.000000
    2       -0.527511   1.000000
    3        3.407874   1.000000
    4        3.407874   1.000000
    5        3.502918   1.000000
    6        3.502918   1.000000
    7        4.679683   1.000000
    8        4.679683   1.000000
    9        5.613937   1.000000
   10        5.613937   1.000000
   11        5.734685   1.000000
   12        5.734685   1.000000
   13       23.300514   0.000000
   14       23.300514   0.000000
   15       25.387181   0.000000
   16       25.387181   0.000000
   17       26.355883   0.000000
   18       26.355883   0.000000
   19       26.827884   0.000000
   20       26.827884   0.000000
   21       32.340042   0.000000
   22       32.340042   0.000000
   23       33.152546   0.000000
   24       33.152615   0.000000
 
  0.8163265E-01  0.0000000E+00  0.8163265E-01  0.2000000E-02
    1       -0.459988   1.000000
    2       -0.459988   1.000000
    3        3.396272   1.000000
    4        3.396272   1.000000
    5        3.521457   1.000000
    6        3.521457   1.000000
    7        4.692196   1.000000
    8        4.692196   1.000000
    9        5.590305   1.000000
   10        5.590305   1.000000
   11        5.746269   1.000000
   12        5.746269   1.000000
   13       23.374154   0.000000
   14       23.374154   0.000000
   15       25.269145   0.000000
   16       25.269145   0.000000
   17       26.206007   0.000000
   18       26.206007   0.000000
   19       26.769725   0.000000
   20       26.769725   0.000000
   21       32.243754   0.000000
   22       32.243758   0.000000
   23       33.345560   0.000000
   24       33.349082   0.000000
 
  0.9183673E-01  0.0000000E+00  0.9183673E-01  0.2000000E-02
    1       -0.383920   1.000000
    2       -0.383920   1.000000
    3        3.382198   1.000000
    4        3.382198   1.000000
    5        3.541942   1.000000
    6        3.541942   1.000000
    7        4.707433   1.000000
    8        4.707433   1.000000
    9        5.564867   1.000000
   10        5.564867   1.000000
   11        5.759672   1.000000
   12        5.759672   1.000000
   13       23.456374   0.000000
   14       23.456374   0.000000
   15       25.141640   0.000000
   16       25.141640   0.000000
   17       26.046451   0.000000
   18       26.046451   0.000000
   19       26.697117   0.000000
   20       26.697117   0.000000
   21       32.065411   0.000000
   22       32.065417   0.000000
   23       33.583995   0.000000
   24       33.605504   0.000000
 
  0.1020408E+00  0.0000000E+00  0.1020408E+00  0.2000000E-02
    1       -0.299516   1.000000
    2       -0.299516   1.000000
    3        3.365420   1.000000
    4        3.365420   1.000000
    5        3.564151   1.000000
    6        3.564151   1.000000
    7        4.725660   1.000000
    8        4.725660   1.000000
    9        5.538172   1.000000
   10        5.538172   1.000000
   11        5.774951   1.000000
   12        5.774951   1.000000
   13       23.546700   0.000000
   14       23.546700   0.000000
   15       25.006215   0.000000
   16       25.006215   0.000000
   17       25.877771   0.000000
   18       25.877771   0.000000
   19       26.608112   0.000000
   20       26.608112   0.000000
   21       31.847575   0.000000
   22       31.847576   0.000000
   23       33.409012   0.000000
   24       33.437006   0.000000
 
  0.1122449E+00  0.0000000E+00  0.1122449E+00  0.2000000E-02
    1       -0.207055   1.000000
    2       -0.207055   1.000000
    3        3.345768   1.000000
    4        3.345768   1.000000
    5        3.587852   1.000000
    6        3.587852   1.000000
    7        4.747124   1.000000
    8        4.747124   1.000000
    9        5.510842   1.000000
   10        5.510842   1.000000
   11        5.792162   1.000000
   12        5.792162   1.000000
   13       23.644649   0.000000
   14       23.644649   0.000000
   15       24.863500   0.000000
   16       24.863500   0.000000
   17       25.701313   0.000000
   18       25.701313   0.000000
   19       26.500990   0.000000
   20       26.500990   0.000000
   21       31.588993   0.000000
   22       31.588993   0.000000
   23       33.237841   0.000000
   24       33.240351   0.000000
 
  0.1224490E+00  0.0000000E+00  0.1224490E+00  0.2000000E-02
    1       -0.106779   1.000000
    2       -0.106779   1.000000
    3        3.323126   1.000000
    4        3.323126   1.000000
    5        3.612789   1.000000
    6        3.612789   1.000000
    7        4.772030   1.000000
    8        4.772030   1.000000
    9        5.483561   1.000000
   10        5.483561   1.000000
   11        5.811356   1.000000
   12        5.811356   1.000000
   13       23.749681   0.000000
   14       23.749681   0.000000
   15       24.712787   0.000000
   16       24.712787   0.000000
   17       25.519763   0.000000
   18       25.519763   0.000000
   19       26.374419   0.000000
   20       26.374419   0.000000
   21       31.274344   0.000000
   22       31.274344   0.000000
   23       32.971743   0.000000
   24       32.983541   0.000000
 
  0.1326531E+00  0.0000000E+00  0.1326531E+00  0.2000000E-02
    1        0.000965   1.000000
    2        0.000965   1.000000
    3        3.297441   1.000000
    4        3.297441   1.000000
    5        3.638691   1.000000
    6        3.638691   1.000000
    7        4.800521   1.000000
    8        4.800521   1.000000
    9        5.457103   1.000000
   10        5.457103   1.000000
   11        5.832573   1.000000
   12        5.832573   1.000000
   13       23.861213   0.000000
   14       23.861213   0.000000
   15       24.551749   0.000000
   16       24.551749   0.000000
   17       25.337528   0.000000
   18       25.337528   0.000000
   19       26.227618   0.000000
   20       26.227618   0.000000
   21       30.894269   0.000000
   22       30.894269   0.000000
   23       32.767619   0.000000
   24       32.787758   0.000000
 
  0.1428571E+00  0.0000000E+00  0.1428571E+00  0.2000000E-02
    1        0.115761   1.000000
    2        0.115761   1.000000
    3        3.268718   1.000000
    4        3.268718   1.000000
    5        3.665284   1.000000
    6        3.665284   1.000000
    7        4.832675   1.000000
    8        4.832675   1.000000
    9        5.432318   1.000000
   10        5.432318   1.000000
   11        5.855842   1.000000
   12        5.855842   1.000000
   13       23.978618   0.000000
   14       23.978618   0.000000
   15       24.376579   0.000000
   16       24.376579   0.000000
   17       25.160625   0.000000
   18       25.160625   0.000000
   19       26.060491   0.000000
   20       26.060491   0.000000
   21       30.455084   0.000000
   22       30.455084   0.000000
   23       32.638400   0.000000
   24       32.641888   0.000000
 
  0.1530612E+00  0.0000000E+00  0.1530612E+00  0.2000000E-02
    1        0.237088   1.000000
    2        0.237088   1.000000
    3        3.237035   1.000000
    4        3.237035   1.000000
    5        3.692324   1.000000
    6        3.692324   1.000000
    7        4.868509   1.000000
    8        4.868509   1.000000
    9        5.410127   1.000000
   10        5.410127   1.000000
   11        5.881187   1.000000
   12        5.881187   1.000000
   13       24.101203   0.000000
   14       24.101203   0.000000
   15       24.182953   0.000000
   16       24.182953   0.000000
   17       24.995621   0.000000
   18       24.995621   0.000000
   19       25.873640   0.000000
   20       25.873640   0.000000
   21       29.972185   0.000000
   22       29.972185   0.000000
   23       32.575239   0.000000
   24       32.580434   0.000000
 
  0.1632653E+00  0.0000000E+00  0.1632653E+00  0.2000000E-02
    1        0.364309   1.000000
    2        0.364309   1.000000
    3        3.202522   1.000000
    4        3.202522   1.000000
    5        3.719621   1.000000
    6        3.719621   1.000000
    7        4.907961   1.000000
    8        4.907961   1.000000
    9        5.391497   1.000000
   10        5.391497   1.000000
   11        5.908629   1.000000
   12        5.908629   1.000000
   13       23.967870   0.000000
   14       23.967870   0.000000
   15       24.228157   0.000000
   16       24.228157   0.000000
   17       24.847742   0.000000
   18       24.847742   0.000000
   19       25.668379   0.000000
   20       25.668379   0.000000
   21       29.460433   0.000000
   22       29.460433   0.000000
   23       32.563887   0.000000
   24       32.564650   0.000000
 
  0.1734694E+00  0.0000000E+00  0.1734694E+00  0.2000000E-02
    1        0.496723   1.000000
    2        0.496723   1.000000
    3        3.165362   1.000000
    4        3.165362   1.000000
    5        3.747093   1.000000
    6        3.747093   1.000000
    7        4.950914   1.000000
    8        4.950914   1.000000
    9        5.377395   1.000000
   10        5.377395   1.000000
   11        5.938174   1.000000
   12        5.938174   1.000000
   13       23.731052   0.000000
   14       23.731052   0.000000
   15       24.358401   0.000000
   16       24.358401   0.000000
   17       24.719356   0.000000
   18       24.719356   0.000000
   19       25.446773   0.000000
   20       25.446773   0.000000
   21       28.930705   0.000000
   22       28.930705   0.000000
   23       32.596825   0.000000
   24       32.605243   0.000000
 
  0.1836735E+00  0.0000000E+00  0.1836735E+00  0.2000000E-02
    1        0.633430   1.000000
    2        0.633430   1.000000
    3        3.125785   1.000000
    4        3.125785   1.000000
    5        3.774834   1.000000
    6        3.774834   1.000000
    7        4.997191   1.000000
    8        4.997191   1.000000
    9        5.368780   1.000000
   10        5.368780   1.000000
   11        5.969832   1.000000
   12        5.969832   1.000000
   13       23.474740   0.000000
   14       23.474740   0.000000
   15       24.489917   0.000000
   16       24.489917   0.000000
   17       24.610108   0.000000
   18       24.610108   0.000000
   19       25.212162   0.000000
   20       25.212162   0.000000
   21       28.390344   0.000000
   22       28.390344   0.000000
   23       32.666913   0.000000
   24       32.731068   0.000000
 
  0.1938776E+00  0.0000000E+00  0.1938776E+00  0.2000000E-02
    1        0.773323   1.000000
    2        0.773323   1.000000
    3        3.084056   1.000000
    4        3.084056   1.000000
    5        3.803197   1.000000
    6        3.803197   1.000000
    7        5.046564   1.000000
    8        5.046564   1.000000
    9        5.366547   1.000000
   10        5.366547   1.000000
   11        6.003620   1.000000
   12        6.003620   1.000000
   13       23.202388   0.000000
   14       23.202388   0.000000
   15       24.518151   0.000000
   16       24.518151   0.000000
   17       24.614691   0.000000
   18       24.614691   0.000000
   19       24.974081   0.000000
   20       24.974081   0.000000
   21       27.844390   0.000000
   22       27.844390   0.000000
   23       32.757904   0.000000
   24       32.760081   0.000000
 
  0.2040816E+00  0.0000000E+00  0.2040816E+00  0.2000000E-02
    1        0.915038   1.000000
    2        0.915038   1.000000
    3        3.040447   1.000000
    4        3.040447   1.000000
    5        3.832870   1.000000
    6        3.832870   1.000000
    7        5.098750   1.000000
    8        5.098750   1.000000
    9        5.371481   1.000000
   10        5.371481   1.000000
   11        6.039540   1.000000
   12        6.039540   1.000000
   13       22.917511   0.000000
   14       22.917511   0.000000
   15       24.441186   0.000000
   16       24.441186   0.000000
   17       24.629021   0.000000
   18       24.629021   0.000000
   19       24.837788   0.000000
   20       24.837788   0.000000
   21       27.296504   0.000000
   22       27.296504   0.000000
   23       32.880640   0.000000
   24       32.955798   0.000000
 
  0.2142857E+00  0.0000000E+00  0.2142857E+00  0.2000000E-02
    1        1.056926   1.000000
    2        1.056926   1.000000
    3        2.995261   1.000000
    4        2.995261   1.000000
    5        3.864962   1.000000
    6        3.864962   1.000000
    7        5.153427   1.000000
    8        5.153427   1.000000
    9        5.384210   1.000000
   10        5.384210   1.000000
   11        6.077616   1.000000
   12        6.077616   1.000000
   13       22.623152   0.000000
   14       22.623152   0.000000
   15       24.376844   0.000000
   16       24.376844   0.000000
   17       24.398164   0.000000
   18       24.398164   0.000000
   19       24.939575   0.000000
   20       24.939575   0.000000
   21       26.749782   0.000000
   22       26.749782   0.000000
   23       33.026785   0.000000
   24       33.046450   0.000000
 
  0.2244898E+00  0.0000000E+00  0.2244898E+00  0.2000000E-02
    1        1.197080   1.000000
    2        1.197080   1.000000
    3        2.948810   1.000000
    4        2.948810   1.000000
    5        3.901072   1.000000
    6        3.901072   1.000000
    7        5.210251   1.000000
    8        5.210251   1.000000
    9        5.405190   1.000000
   10        5.405190   1.000000
   11        6.117877   1.000000
   12        6.117877   1.000000
   13       22.321780   0.000000
   14       22.321780   0.000000
   15       24.127842   0.000000
   16       24.127842   0.000000
   17       24.322385   0.000000
   18       24.322385   0.000000
   19       25.075165   0.000000
   20       25.075165   0.000000
   21       26.207458   0.000000
   22       26.207458   0.000000
   23       33.194104   0.000000
   24       33.206287   0.000000
 
  0.2346939E+00  0.0000000E+00  0.2346939E+00  0.2000000E-02
    1        1.333228   1.000000
    2        1.333228   1.000000
    3        2.901392   1.000000
    4        2.901392   1.000000
    5        3.943260   1.000000
    6        3.943260   1.000000
    7        5.268814   1.000000
    8        5.268814   1.000000
    9        5.434677   1.000000
   10        5.434677   1.000000
   11        6.160348   1.000000
   12        6.160348   1.000000
   13       22.015319   0.000000
   14       22.015319   0.000000
   15       23.848664   0.000000
   16       23.848664   0.000000
   17       24.273466   0.000000
   18       24.273466   0.000000
   19       25.215251   0.000000
   20       25.215251   0.000000
   21       25.674299   0.000000
   22       25.674299   0.000000
   23       33.382089   0.000000
   24       33.399869   0.000000
 
  0.2448980E+00  0.0000000E+00  0.2448980E+00  0.2000000E-02
    1        1.462808   1.000000
    2        1.462808   1.000000
    3        2.853313   1.000000
    4        2.853313   1.000000
    5        3.994012   1.000000
    6        3.994012   1.000000
    7        5.328686   1.000000
    8        5.328686   1.000000
    9        5.472776   1.000000
   10        5.472776   1.000000
   11        6.205065   1.000000
   12        6.205065   1.000000
   13       21.705223   0.000000
   14       21.705223   0.000000
   15       23.565472   0.000000
   16       23.565472   0.000000
   17       24.219350   0.000000
   18       24.219350   0.000000
   19       25.161482   0.000000
   20       25.161482   0.000000
   21       25.356148   0.000000
   22       25.356148   0.000000
   23       33.590407   0.000000
   24       33.729311   0.000000
 
  0.2551020E+00  0.0000000E+00  0.2551020E+00  0.2000000E-02
    1        1.583079   1.000000
    2        1.583079   1.000000
    3        2.804867   1.000000
    4        2.804867   1.000000
    5        4.056055   1.000000
    6        4.056055   1.000000
    7        5.389415   1.000000
    8        5.389415   1.000000
    9        5.519472   1.000000
   10        5.519472   1.000000
   11        6.252064   1.000000
   12        6.252064   1.000000
   13       21.392535   0.000000
   14       21.392535   0.000000
   15       23.280674   0.000000
   16       23.280674   0.000000
   17       24.118958   0.000000
   18       24.118958   0.000000
   19       24.710558   0.000000
   20       24.710558   0.000000
   21       25.496466   0.000000
   22       25.496466   0.000000
   23       33.825418   0.000000
   24       33.894973   0.000000
 
  0.2653061E+00  0.0000000E+00  0.2653061E+00  0.2000000E-02
    1        1.691380   1.000000
    2        1.691380   1.000000
    3        2.756336   1.000000
    4        2.756336   1.000000
    5        4.132052   1.000000
    6        4.132052   1.000000
    7        5.450520   1.000000
    8        5.450520   1.000000
    9        5.574693   1.000000
   10        5.574693   1.000000
   11        6.301368   1.000000
   12        6.301368   1.000000
   13       21.077944   0.000000
   14       21.077944   0.000000
   15       22.996070   0.000000
   16       22.996070   0.000000
   17       23.846716   0.000000
   18       23.846716   0.000000
   19       24.447764   0.000000
   20       24.447764   0.000000
   21       25.635324   0.000000
   22       25.635324   0.000000
   23       34.056315   0.000000
   24       34.127828   0.000000
 
  0.2755102E+00  0.0000000E+00  0.2755102E+00  0.2000000E-02
    1        1.785477   1.000000
    2        1.785477   1.000000
    3        2.707992   1.000000
    4        2.707992   1.000000
    5        4.224206   1.000000
    6        4.224206   1.000000
    7        5.511514   1.000000
    8        5.511514   1.000000
    9        5.638394   1.000000
   10        5.638394   1.000000
   11        6.352990   1.000000
   12        6.352990   1.000000
   13       20.761753   0.000000
   14       20.761753   0.000000
   15       22.713163   0.000000
   16       22.713163   0.000000
   17       23.407635   0.000000
   18       23.407635   0.000000
   19       24.368877   0.000000
   20       24.368877   0.000000
   21       25.772019   0.000000
   22       25.772019   0.000000
   23       34.315603   0.000000
   24       34.363662   0.000000
 
  0.2857143E+00  0.0000000E+00  0.2857143E+00  0.2000000E-02
    1        1.863826   1.000000
    2        1.863826   1.000000
    3        2.660096   1.000000
    4        2.660096   1.000000
    5        4.333833   1.000000
    6        4.333833   1.000000
    7        5.571920   1.000000
    8        5.571920   1.000000
    9        5.710659   1.000000
   10        5.710659   1.000000
   11        6.406920   1.000000
   12        6.406920   1.000000
   13       20.443869   0.000000
   14       20.443869   0.000000
   15       22.433280   0.000000
   16       22.433280   0.000000
   17       22.925781   0.000000
   18       22.925781   0.000000
   19       24.350848   0.000000
   20       24.350848   0.000000
   21       25.905937   0.000000
   22       25.905937   0.000000
   23       34.587898   0.000000
   24       34.660379   0.000000
 
  0.2959184E+00  0.0000000E+00  0.2959184E+00  0.2000000E-02
    1        1.925843   1.000000
    2        1.925843   1.000000
    3        2.612896   1.000000
    4        2.612896   1.000000
    5        4.460999   1.000000
    6        4.460999   1.000000
    7        5.631269   1.000000
    8        5.631269   1.000000
    9        5.791796   1.000000
   10        5.791796   1.000000
   11        6.463108   1.000000
   12        6.463108   1.000000
   13       20.123756   0.000000
   14       20.123756   0.000000
   15       22.157625   0.000000
   16       22.157625   0.000000
   17       22.441100   0.000000
   18       22.441100   0.000000
   19       24.355052   0.000000
   20       24.355052   0.000000
   21       26.036525   0.000000
   22       26.036525   0.000000
   23       34.858003   0.000000
   24       34.964608   0.000000
 
  0.3061224E+00  0.0000000E+00  0.3061224E+00  0.2000000E-02
    1        1.971914   1.000000
    2        1.971914   1.000000
    3        2.566619   1.000000
    4        2.566619   1.000000
    5        4.604338   1.000000
    6        4.604338   1.000000
    7        5.689111   1.000000
    8        5.689111   1.000000
    9        5.882452   1.000000
   10        5.882452   1.000000
   11        6.521440   1.000000
   12        6.521440   1.000000
   13       19.800401   0.000000
   14       19.800401   0.000000
   15       21.887305   0.000000
   16       21.887305   0.000000
   17       21.965298   0.000000
   18       21.965298   0.000000
   19       24.371473   0.000000
   20       24.371473   0.000000
   21       26.163271   0.000000
   22       26.163271   0.000000
   23       35.153482   0.000000
   24       35.227681   0.000000
 
  0.3163265E+00  0.0000000E+00  0.3163265E+00  0.2000000E-02
    1        2.003297   1.000000
    2        2.003297   1.000000
    3        2.521494   1.000000
    4        2.521494   1.000000
    5        4.761087   1.000000
    6        4.761087   1.000000
    7        5.745063   1.000000
    8        5.745063   1.000000
    9        5.983777   1.000000
   10        5.983777   1.000000
   11        6.581752   1.000000
   12        6.581752   1.000000
   13       19.472310   0.000000
   14       19.472310   0.000000
   15       21.504340   0.000000
   16       21.504340   0.000000
   17       21.623360   0.000000
   18       21.623360   0.000000
   19       24.396323   0.000000
   20       24.396323   0.000000
   21       26.285711   0.000000
   22       26.285711   0.000000
   23       35.475116   0.000000
   24       35.547517   0.000000
 
  0.3265306E+00  0.0000000E+00  0.3265306E+00  0.2000000E-02
    1        2.021816   1.000000
    2        2.021816   1.000000
    3        2.477720   1.000000
    4        2.477720   1.000000
    5        4.927218   1.000000
    6        4.927218   1.000000
    7        5.798771   1.000000
    8        5.798771   1.000000
    9        6.097529   1.000000
   10        6.097529   1.000000
   11        6.643782   1.000000
   12        6.643782   1.000000
   13       19.137561   0.000000
   14       19.137561   0.000000
   15       21.062770   0.000000
   16       21.062770   0.000000
   17       21.366769   0.000000
   18       21.366769   0.000000
   19       24.427584   0.000000
   20       24.427584   0.000000
   21       26.403421   0.000000
   22       26.403421   0.000000
   23       35.785470   0.000000
   24       35.846556   0.000000
 
  0.3367347E+00  0.0000000E+00  0.3367347E+00  0.2000000E-02
    1        2.029535   1.000000
    2        2.029535   1.000000
    3        2.435488   1.000000
    4        2.435488   1.000000
    5        5.097687   1.000000
    6        5.097687   1.000000
    7        5.849962   1.000000
    8        5.849962   1.000000
    9        6.226136   1.000000
   10        6.226136   1.000000
   11        6.707197   1.000000
   12        6.707197   1.000000
   13       18.794052   0.000000
   14       18.794052   0.000000
   15       20.644659   0.000000
   16       20.644659   0.000000
   17       21.118474   0.000000
   18       21.118474   0.000000
   19       24.463878   0.000000
   20       24.463878   0.000000
   21       26.516019   0.000000
   22       26.516019   0.000000
   23       36.121410   0.000000
   24       36.215606   0.000000
 
  0.3469388E+00  0.0000000E+00  0.3469388E+00  0.2000000E-02
    1        2.028529   1.000000
    2        2.028529   1.000000
    3        2.394977   1.000000
    4        2.394977   1.000000
    5        5.266842   1.000000
    6        5.266842   1.000000
    7        5.898411   1.000000
    8        5.898411   1.000000
    9        6.372487   1.000000
   10        6.372487   1.000000
   11        6.771567   1.000000
   12        6.771567   1.000000
   13       18.439940   0.000000
   14       18.439940   0.000000
   15       20.253563   0.000000
   16       20.253563   0.000000
   17       20.879380   0.000000
   18       20.879380   0.000000
   19       24.504101   0.000000
   20       24.504101   0.000000