       N       E                     dE             d eps       ncg     rms          rms(c)
DAV:   1     0.722305886786E+02    0.72231E+02   -0.59820E+03 24088   0.983E+02
DAV:   2    -0.162634829330E+00   -0.72393E+02   -0.66174E+02 29048   0.233E+02
DAV:   3    -0.178117792249E+01   -0.16185E+01   -0.16126E+01 29336   0.348E+01
DAV:   4    -0.179049990288E+01   -0.93220E-02   -0.93213E-02 29200   0.281E+00
DAV:   5    -0.179061507219E+01   -0.11517E-03   -0.11517E-03 29296   0.328E-01
DAV:   6    -0.179061671542E+01   -0.16432E-05   -0.16432E-05 29112   0.392E-02
DAV:   7    -0.179061674071E+01   -0.25293E-07   -0.25299E-07 29136   0.503E-03
   1 F= -.17906167E+01 E0= -.17906167E+01  d E =-.132153E-24  mag=     0.0000    -0.0000     0.0000
