       N       E                     dE             d eps       ncg     rms          rms(c)
DAV:   1     0.722311432562E+02    0.72231E+02   -0.59821E+03 24088   0.983E+02
DAV:   2    -0.162700024212E+00   -0.72394E+02   -0.66174E+02 29048   0.233E+02
DAV:   3    -0.178121295880E+01   -0.16185E+01   -0.16125E+01 29336   0.348E+01
DAV:   4    -0.179053640743E+01   -0.93234E-02   -0.93228E-02 29200   0.281E+00
DAV:   5    -0.179065161536E+01   -0.11521E-03   -0.11521E-03 29296   0.328E-01
DAV:   6    -0.179065325941E+01   -0.16441E-05   -0.16441E-05 29112   0.393E-02
DAV:   7    -0.179065328473E+01   -0.25313E-07   -0.25314E-07 29120   0.510E-03
   1 F= -.17906533E+01 E0= -.17906533E+01  d E =-.261351E-27  mag=     0.0000     0.0000     0.0000
