 vasp.5.4.4.18Apr17-6-g9f103f2a35 (build Mar 08 2022 14:55:45) complex          
  
 executed on             LinuxIFC date 2024.04.08  23:56:32
 running on  128 total cores
 distrk:  each k-point on   64 cores,    2 groups
 distr:  one band on NCORES_PER_BAND=   8 cores,    8 groups


--------------------------------------------------------------------------------------------------------


 INCAR:
 POTCAR:    PW_PBE Au 04Oct2007                   

 ----------------------------------------------------------------------------- 
|                                                                             |
|           W    W    AA    RRRRR   N    N  II  N    N   GGGG   !!!           |
|           W    W   A  A   R    R  NN   N  II  NN   N  G    G  !!!           |
|           W    W  A    A  R    R  N N  N  II  N N  N  G       !!!           |
|           W WW W  AAAAAA  RRRRR   N  N N  II  N  N N  G  GGG   !            |
|           WW  WW  A    A  R   R   N   NN  II  N   NN  G    G                |
|           W    W  A    A  R    R  N    N  II  N    N   GGGG   !!!           |
|                                                                             |
|      You have enabled k-point parallelism (KPAR>1).                         |
|      This developmental code was originally  written by Paul Kent at ORNL,  |
|      and carefully double checked in Vienna.                                |
|      GW as well as linear response parallelism added by Martijn Marsman     |
|      and Georg Kresse.                                                      |
|      Carefully verify results versus KPAR=1.                                |
|      Report problems to Paul Kent and Vienna.                               |
|                                                                             |
 ----------------------------------------------------------------------------- 

 POTCAR:    PW_PBE Au 04Oct2007                   
   VRHFIN =Au: s1d10                                                            
   LEXCH  = PE                                                                  
   EATOM  =   926.0867 eV,   68.0654 Ry                                         
                                                                                
   TITEL  = PAW_PBE Au 04Oct2007                                                
   LULTRA =        F    use ultrasoft PP ?                                      
   IUNSCR =        1    unscreen: 0-lin 1-nonlin 2-no                           
   RPACOR =    2.330    partial core radius                                     
   POMASS =  196.966; ZVAL   =   11.000    mass and valenz                      
   RCORE  =    2.500    outmost cutoff radius                                   
   RWIGS  =    2.840; RWIGS  =    1.503    wigner-seitz radius (au A)           
   ENMAX  =  229.943; ENMIN  =  172.457 eV                                      
   ICORE  =        3    local potential                                         
   LCOR   =        T    correct aug charges                                     
   LPAW   =        T    paw PP                                                  
   EAUG   =  356.670                                                            
   DEXC   =    0.000                                                            
   RMAX   =    2.562    core radius for proj-oper                               
   RAUG   =    1.300    factor for augmentation sphere                          
   RDEP   =    2.598    radius for radial grids                                 
   RDEPT  =    2.193    core radius for aug-charge                              
                                                                                
   Atomic configuration                                                         
   16 entries                                                                   
     n  l   j            E        occ.                                          
     1  0  0.50    -80748.5001   2.0000                                         
     2  0  0.50    -14244.7466   2.0000                                         
     2  1  1.50    -12310.9591   6.0000                                         
     3  0  0.50     -3362.1768   2.0000                                         
     3  1  1.50     -2801.5463   6.0000                                         
     3  2  2.50     -2203.8206  10.0000                                         
     4  0  0.50      -729.8168   2.0000                                         
     4  1  1.50      -546.0527   6.0000                                         
     4  2  2.50      -325.7302  10.0000                                         
     4  3  3.50       -81.1472  14.0000                                         
     5  0  0.50      -108.3201   2.0000                                         
     5  1  1.50       -59.7479   6.0000                                         
     5  2  2.50        -6.8783  10.0000                                         
     6  0  0.50        -5.7602   1.0000                                         
     6  1  1.50        -6.8029   0.0000                                         
     5  3  2.50        -1.3606   0.0000                                         
   Description                                                                  
     l       E           TYP  RCUT    TYP  RCUT                                 
     2     -6.8782861     23  2.500                                             
     2     -8.2388687     23  2.500                                             
     0     -5.7601759     23  2.500                                             
     0     -0.8493231     23  2.500                                             
     1     -2.7211652     23  2.500                                             
     1     27.2116520     23  2.500                                             
     3     -1.3605826     23  2.500                                             
  local pseudopotential read in
  partial core-charges read in
  partial kinetic energy density read in
  atomic valenz-charges read in
  non local Contribution for L=           2  read in
    real space projection operators read in
  non local Contribution for L=           2  read in
    real space projection operators read in
  non local Contribution for L=           0  read in
    real space projection operators read in
  non local Contribution for L=           0  read in
    real space projection operators read in
  non local Contribution for L=           1  read in
    real space projection operators read in
  non local Contribution for L=           1  read in
    real space projection operators read in
    PAW grid and wavefunctions read in
 
   number of l-projection  operators is LMAX  =           6
   number of lm-projection operators is LMMAX =          18
 
  PW_PBE Au 04Oct2007                   :
 energy of atom  1       EATOM= -926.0867
 kinetic energy error for atom=    0.0013 (will be added to EATOM!!)
 
 
 POSCAR: Au1                                     
  positions in direct lattice
  velocities in cartesian coordinates
  No initial velocities read in
 exchange correlation table for  LEXCH =        8
   RHO(1)=    0.500       N(1)  =     2000
   RHO(2)=  100.500       N(2)  =     4000
 


--------------------------------------------------------------------------------------------------------


 ion  position               nearest neighbor table
   1  0.000  0.000  0.000-
 
  LATTYP: Found a face centered cubic cell.
 ALAT       =     4.1712884904
  
  Lattice vectors:
  
 A1 = (   0.0000000000,   2.0856442452,   2.0856442452)
 A2 = (   2.0856442452,   0.0000000000,   2.0856442452)
 A3 = (   2.0856442452,   2.0856442452,   0.0000000000)


Analysis of symmetry for initial positions (statically):
=====================================================================
 Subroutine PRICEL returns:
 Original cell was already a primitive cell.
 

 Routine SETGRP: Setting up the symmetry group for a 
 face centered cubic supercell.


 Subroutine GETGRP returns: Found 48 space group operations
 (whereof 48 operations were pure point group operations)
 out of a pool of 48 trial point group operations.


The static configuration has the point symmetry O_h .


Analysis of symmetry for dynamics (positions and initial velocities):
=====================================================================
 Subroutine PRICEL returns:
 Original cell was already a primitive cell.
 

 Routine SETGRP: Setting up the symmetry group for a 
 face centered cubic supercell.


 Subroutine GETGRP returns: Found 48 space group operations
 (whereof 48 operations were pure point group operations)
 out of a pool of 48 trial point group operations.


The dynamic configuration has the point symmetry O_h .


Analysis of structural, dynamic, and magnetic symmetry:
=====================================================================
 Subroutine PRICEL returns:
 Original cell was already a primitive cell.
 

 Routine SETGRP: Setting up the symmetry group for a 
 face centered cubic supercell.


 Subroutine GETGRP returns: Found 48 space group operations
 (whereof 48 operations were pure point group operations)
 out of a pool of 48 trial point group operations.


The (compounded) configuration has the point symmetry O_h .


 Subroutine INISYM returns: Found 48 space group operations
 (whereof 48 operations are pure point group operations),
 and found     1 'primitive' translations

 
 
 KPOINTS: kpoints along symmetry lines            
  interpolating k-points between supplied coordinates
  k-points in reciprocal lattice
Space group operators:
 irot       det(A)        alpha          n_x          n_y          n_z        tau_x        tau_y        tau_z
    1     1.000000     0.000000     1.000000     0.000000     0.000000     0.000000     0.000000     0.000000
    2    -1.000000     0.000000     1.000000     0.000000     0.000000     0.000000     0.000000     0.000000
    3     1.000000   120.000000    -0.577350    -0.577350    -0.577350     0.000000     0.000000     0.000000
    4    -1.000000   120.000000    -0.577350    -0.577350    -0.577350     0.000000     0.000000     0.000000
    5     1.000000   120.000000     0.577350     0.577350     0.577350     0.000000     0.000000     0.000000
    6    -1.000000   120.000000     0.577350     0.577350     0.577350     0.000000     0.000000     0.000000
    7     1.000000    90.000000     0.000000     0.000000    -1.000000     0.000000     0.000000     0.000000
    8    -1.000000    90.000000     0.000000     0.000000    -1.000000     0.000000     0.000000     0.000000
    9     1.000000   180.000000     0.000000     0.707107     0.707107     0.000000     0.000000     0.000000
   10    -1.000000   180.000000     0.000000     0.707107     0.707107     0.000000     0.000000     0.000000
   11     1.000000    90.000000     0.000000     1.000000     0.000000     0.000000     0.000000     0.000000
   12    -1.000000    90.000000     0.000000     1.000000     0.000000     0.000000     0.000000     0.000000
   13     1.000000   180.000000     0.000000     0.000000     1.000000     0.000000     0.000000     0.000000
   14    -1.000000   180.000000     0.000000     0.000000     1.000000     0.000000     0.000000     0.000000
   15     1.000000   120.000000    -0.577350     0.577350     0.577350     0.000000     0.000000     0.000000
   16    -1.000000   120.000000    -0.577350     0.577350     0.577350     0.000000     0.000000     0.000000
   17     1.000000   120.000000    -0.577350     0.577350    -0.577350     0.000000     0.000000     0.000000
   18    -1.000000   120.000000    -0.577350     0.577350    -0.577350     0.000000     0.000000     0.000000
   19     1.000000    90.000000     0.000000     0.000000     1.000000     0.000000     0.000000     0.000000
   20    -1.000000    90.000000     0.000000     0.000000     1.000000     0.000000     0.000000     0.000000
   21     1.000000    90.000000    -1.000000     0.000000     0.000000     0.000000     0.000000     0.000000
   22    -1.000000    90.000000    -1.000000     0.000000     0.000000     0.000000     0.000000     0.000000
   23     1.000000   180.000000     0.707107     0.000000     0.707107     0.000000     0.000000     0.000000
   24    -1.000000   180.000000     0.707107     0.000000     0.707107     0.000000     0.000000     0.000000
   25     1.000000   120.000000     0.577350    -0.577350     0.577350     0.000000     0.000000     0.000000
   26    -1.000000   120.000000     0.577350    -0.577350     0.577350     0.000000     0.000000     0.000000
   27     1.000000   120.000000    -0.577350    -0.577350     0.577350     0.000000     0.000000     0.000000
   28    -1.000000   120.000000    -0.577350    -0.577350     0.577350     0.000000     0.000000     0.000000
   29     1.000000   180.000000     1.000000     0.000000     0.000000     0.000000     0.000000     0.000000
   30    -1.000000   180.000000     1.000000     0.000000     0.000000     0.000000     0.000000     0.000000
   31     1.000000    90.000000     0.000000    -1.000000     0.000000     0.000000     0.000000     0.000000
   32    -1.000000    90.000000     0.000000    -1.000000     0.000000     0.000000     0.000000     0.000000
   33     1.000000   180.000000     0.707107     0.707107     0.000000     0.000000     0.000000     0.000000
   34    -1.000000   180.000000     0.707107     0.707107     0.000000     0.000000     0.000000     0.000000
   35     1.000000    90.000000     1.000000     0.000000     0.000000     0.000000     0.000000     0.000000
   36    -1.000000    90.000000     1.000000     0.000000     0.000000     0.000000     0.000000     0.000000
   37     1.000000   120.000000     0.577350    -0.577350    -0.577350     0.000000     0.000000     0.000000
   38    -1.000000   120.000000     0.577350    -0.577350    -0.577350     0.000000     0.000000     0.000000
   39     1.000000   180.000000     0.000000     1.000000     0.000000     0.000000     0.000000     0.000000
   40    -1.000000   180.000000     0.000000     1.000000     0.000000     0.000000     0.000000     0.000000
   41     1.000000   120.000000     0.577350     0.577350    -0.577350     0.000000     0.000000     0.000000
   42    -1.000000   120.000000     0.577350     0.577350    -0.577350     0.000000     0.000000     0.000000
   43     1.000000   180.000000     0.000000    -0.707107     0.707107     0.000000     0.000000     0.000000
   44    -1.000000   180.000000     0.000000    -0.707107     0.707107     0.000000     0.000000     0.000000
   45     1.000000   180.000000     0.707107    -0.707107     0.000000     0.000000     0.000000     0.000000
   46    -1.000000   180.000000     0.707107    -0.707107     0.000000     0.000000     0.000000     0.000000
   47     1.000000   180.000000     0.707107     0.000000    -0.707107     0.000000     0.000000     0.000000
   48    -1.000000   180.000000     0.707107     0.000000    -0.707107     0.000000     0.000000     0.000000


--------------------------------------------------------------------------------------------------------




 Dimension of arrays:
   k-points           NKPTS =    500   k-points in BZ     NKDIM =    500   number of bands    NBANDS=     24
   number of dos      NEDOS =   9999   number of ions     NIONS =      1
   non local maximal  LDIM  =      6   non local SUM 2l+1 LMDIM =     18
   total plane-waves  NPLWV =  13824
   max r-space proj   IRMAX =      1   max aug-charges    IRDMAX= 372884
   dimension x,y,z NGX =    24 NGY =   24 NGZ =   24
   dimension x,y,z NGXF=    48 NGYF=   48 NGZF=   48
   support grid    NGXF=    96 NGYF=   96 NGZF=   96
   ions per type =               1
   NGX,Y,Z   is equivalent  to a cutoff of  13.53, 13.53, 13.53 a.u.
   NGXF,Y,Z  is equivalent  to a cutoff of  27.05, 27.05, 27.05 a.u.

 SYSTEM =  Au                                      
 POSCAR =  Au1                                     

 Startparameter for this run:
   NWRITE =      2    write-flag & timer
   PREC   = a         normal or accurate (medium, high low for compatibility)
   ISTART =      0    job   : 0-new  1-cont  2-samecut
   ICHARG =     11    charge: 1-file 2-atom 10-const
   ISPIN  =      1    spin polarized calculation?
   LNONCOLLINEAR =      T non collinear calculations
   LSORBIT =      T    spin-orbit coupling
   INIWAV =      1    electr: 0-lowe 1-rand  2-diag
   LASPH  =      T    aspherical Exc in radial PAW
   METAGGA=      F    non-selfconsistent MetaGGA calc.

 Electronic Relaxation 1
   ENCUT  =  600.0 eV  44.10 Ry    6.64 a.u.   5.89  5.89  5.89*2*pi/ulx,y,z
   ENINI  =  600.0     initial cutoff
   ENAUG  =  356.7 eV  augmentation charge cutoff
   NELM   =    500;   NELMIN=  2; NELMDL=  0     # of ELM steps 
   EDIFF  = 0.1E-06   stopping-criterion for ELM
   LREAL  =      F    real-space projection
   NLSPLINE    = F    spline interpolate recip. space projectors
   LCOMPAT=      F    compatible to vasp.4.4
   GGA_COMPAT  = T    GGA compatible to vasp.4.4-vasp.4.6
   LMAXPAW     = -100 max onsite density
   LMAXMIX     =    2 max onsite mixed and CHGCAR
   VOSKOWN=      0    Vosko Wilk Nusair interpolation
   ROPT   =    0.00000
 Ionic relaxation
   EDIFFG = -.8E-02   stopping-criterion for IOM
   NSW    =      0    number of steps for IOM
   NBLOCK =      1;   KBLOCK =      1    inner block; outer block 
   IBRION =     -1    ionic relax: 0-MD 1-quasi-New 2-CG
   NFREE  =      0    steps in history (QN), initial steepest desc. (CG)
   ISIF   =      2    stress and relaxation
   IWAVPR =     10    prediction:  0-non 1-charg 2-wave 3-comb
   ISYM   =      2    0-nonsym 1-usesym 2-fastsym
   LCORR  =      T    Harris-Foulkes like correction to forces

   POTIM  = 0.5000    time-step for ionic-motion
   TEIN   =    0.0    initial temperature
   TEBEG  =    0.0;   TEEND  =   0.0 temperature during run
   SMASS  =  -3.00    Nose mass-parameter (am)
   estimated Nose-frequenzy (Omega)   =  0.10E-29 period in steps =****** mass=  -0.199E-27a.u.
   SCALEE = 1.0000    scale energy and forces
   NPACO  =    256;   APACO  = 16.0  distance and # of slots for P.C.
   PSTRESS=    0.0 pullay stress

  Mass of Ions in am
   POMASS = 196.97
  Ionic Valenz
   ZVAL   =  11.00
  Atomic Wigner-Seitz radii
   RWIGS  =  -1.00
  virtual crystal weights 
   VCA    =   1.00
   NELECT =      11.0000    total number of electrons
   NUPDOWN=      -1.0000    fix difference up-down

 DOS related values:
   EMIN   =  10.00;   EMAX   =-10.00  energy-range for DOS
   EFERMI =   0.00
   ISMEAR =     0;   SIGMA  =   0.00  broadening in eV -4-tet -1-fermi 0-gaus

 Electronic relaxation 2 (details)
   IALGO  =     38    algorithm
   LDIAG  =      T    sub-space diagonalisation (order eigenvalues)
   LSUBROT=      F    optimize rotation matrix (better conditioning)
   TURBO    =      0    0=normal 1=particle mesh
   IRESTART =      0    0=no restart 2=restart with 2 vectors
   NREBOOT  =      0    no. of reboots
   NMIN     =      0    reboot dimension
   EREF     =   0.00    reference energy to select bands
   IMIX   =      4    mixing-type and parameters
     AMIX     =   0.20;   BMIX     =  0.00
     AMIX_MAG =   0.80;   BMIX_MAG =  0.00
     AMIN     =   0.10
     WC   =   100.;   INIMIX=   1;  MIXPRE=   1;  MAXMIX= -45

 Intra band minimization:
   WEIMIN = 0.0000     energy-eigenvalue tresh-hold
   EBREAK =  0.10E-08  absolut break condition
   DEPER  =   0.30     relativ break condition  

   TIME   =   0.40     timestep for ELM

  volume/ion in A,a.u.               =      18.14       122.45
  Fermi-wavevector in a.u.,A,eV,Ry     =   1.385550  2.618310 26.119763  1.919748
  Thomas-Fermi vector in A             =   2.509949
 
 Write flags
   LWAVE        =      F    write WAVECAR
   LDOWNSAMPLE  =      F    k-point downsampling of WAVECAR
   LCHARG       =      T    write CHGCAR
   LVTOT        =      F    write LOCPOT, total local potential
   LVHAR        =      F    write LOCPOT, Hartree potential only
   LELF         =      F    write electronic localiz. function (ELF)
   LORBIT       =     11    0 simple, 1 ext, 2 COOP (PROOUT), +10 PAW based schemes


 Dipole corrections
   LMONO  =      F    monopole corrections only (constant potential shift)
   LDIPOL =      F    correct potential (dipole corrections)
   IDIPOL =      0    1-x, 2-y, 3-z, 4-all directions 
   EPSILON=  1.0000000 bulk dielectric constant

 Exchange correlation treatment:
   GGA     =    PE    GGA type
   LEXCH   =     8    internal setting for exchange type
   VOSKOWN=      0    Vosko Wilk Nusair interpolation
   LHFCALC =     F    Hartree Fock is set to
   LHFONE  =     F    Hartree Fock one center treatment
   AEXX    =    0.0000 exact exchange contribution

 Linear response parameters
   LEPSILON=     F    determine dielectric tensor
   LRPA    =     F    only Hartree local field effects (RPA)
   LNABLA  =     F    use nabla operator in PAW spheres
   LVEL    =     F    velocity operator in full k-point grid
   LINTERFAST=   F  fast interpolation
   KINTER  =     0    interpolate to denser k-point grid
   CSHIFT  =0.1000    complex shift for real part using Kramers Kronig
   OMEGAMAX=  -1.0    maximum frequency
   DEG_THRESHOLD= 0.2000000E-02 threshold for treating states as degnerate
   RTIME   =   -0.100 relaxation time in fs
  (WPLASMAI=    0.000 imaginary part of plasma frequency in eV, 0.658/RTIME)
   DFIELD  = 0.0000000 0.0000000 0.0000000 field for delta impulse in time
 
 Orbital magnetization related:
   ORBITALMAG=     F  switch on orbital magnetization
   LCHIMAG   =     F  perturbation theory with respect to B field
   DQ        =  0.001000  dq finite difference perturbation B field
   LLRAUG    =     F  two centre corrections for induced B field



--------------------------------------------------------------------------------------------------------


 Static calculation
 charge density and potential remain constant during run
 non collinear spin polarized calculation
 Variant of blocked Davidson
 Davidson routine will perform the subspace rotation
 perform sub-space diagonalisation
    after iterative eigenvector-optimisation
 no mixing
 using additional bands           18
 reciprocal scheme for non local part
 use partial core corrections
 calculate Harris-corrections to forces 
   (improved forces if not selfconsistent)
 use gradient corrections 
 WARNING: stress and forces are not correct
  (second derivative of E(xc) not defined)
 use of overlap-Matrix (Vanderbilt PP)
 Gauss-broadening in eV      SIGMA  =   0.00


--------------------------------------------------------------------------------------------------------


  energy-cutoff  :      600.00
  volume of cell :       18.14
      direct lattice vectors                 reciprocal lattice vectors
     0.000000000  2.085644245  2.085644245    -0.239734078  0.239734078  0.239734078
     2.085644245  0.000000000  2.085644245     0.239734078 -0.239734078  0.239734078
     2.085644245  2.085644245  0.000000000     0.239734078  0.239734078 -0.239734078

  length of vectors
     2.949546378  2.949546378  2.949546378     0.415231603  0.415231603  0.415231603


 
 k-points in units of 2pi/SCALE and weight: kpoints along symmetry lines            
   0.00000000  0.00000000  0.00000000       0.002
   0.00000000  0.00489253  0.00000000       0.002
   0.00000000  0.00978506  0.00000000       0.002
   0.00000000  0.01467760  0.00000000       0.002
   0.00000000  0.01957013  0.00000000       0.002
   0.00000000  0.02446266  0.00000000       0.002
   0.00000000  0.02935519  0.00000000       0.002
   0.00000000  0.03424773  0.00000000       0.002
   0.00000000  0.03914026  0.00000000       0.002
   0.00000000  0.04403279  0.00000000       0.002
   0.00000000  0.04892532  0.00000000       0.002
   0.00000000  0.05381785  0.00000000       0.002
   0.00000000  0.05871039  0.00000000       0.002
   0.00000000  0.06360292  0.00000000       0.002
   0.00000000  0.06849545  0.00000000       0.002
   0.00000000  0.07338798  0.00000000       0.002
   0.00000000  0.07828052  0.00000000       0.002
   0.00000000  0.08317305  0.00000000       0.002
   0.00000000  0.08806558  0.00000000       0.002
   0.00000000  0.09295811  0.00000000       0.002
   0.00000000  0.09785064  0.00000000       0.002
   0.00000000  0.10274318  0.00000000       0.002
   0.00000000  0.10763571  0.00000000       0.002
   0.00000000  0.11252824  0.00000000       0.002
   0.00000000  0.11742077  0.00000000       0.002
   0.00000000  0.12231331  0.00000000       0.002
   0.00000000  0.12720584  0.00000000       0.002
   0.00000000  0.13209837  0.00000000       0.002
   0.00000000  0.13699090  0.00000000       0.002
   0.00000000  0.14188343  0.00000000       0.002
   0.00000000  0.14677597  0.00000000       0.002
   0.00000000  0.15166850  0.00000000       0.002
   0.00000000  0.15656103  0.00000000       0.002
   0.00000000  0.16145356  0.00000000       0.002
   0.00000000  0.16634609  0.00000000       0.002
   0.00000000  0.17123863  0.00000000       0.002
   0.00000000  0.17613116  0.00000000       0.002
   0.00000000  0.18102369  0.00000000       0.002
   0.00000000  0.18591622  0.00000000       0.002
   0.00000000  0.19080876  0.00000000       0.002
   0.00000000  0.19570129  0.00000000       0.002
   0.00000000  0.20059382  0.00000000       0.002
   0.00000000  0.20548635  0.00000000       0.002
   0.00000000  0.21037888  0.00000000       0.002
   0.00000000  0.21527142  0.00000000       0.002
   0.00000000  0.22016395  0.00000000       0.002
   0.00000000  0.22505648  0.00000000       0.002
   0.00000000  0.22994901  0.00000000       0.002
   0.00000000  0.23484155  0.00000000       0.002
   0.00000000  0.23973408  0.00000000       0.002
   0.00000000  0.23973408  0.00000000       0.002
   0.00244627  0.23973408  0.00000000       0.002
   0.00489253  0.23973408  0.00000000       0.002
   0.00733880  0.23973408  0.00000000       0.002
   0.00978506  0.23973408 -0.00000000       0.002
   0.01223133  0.23973408  0.00000000       0.002
   0.01467760  0.23973408  0.00000000       0.002
   0.01712386  0.23973408  0.00000000       0.002
   0.01957013  0.23973408 -0.00000000       0.002
   0.02201639  0.23973408  0.00000000       0.002
   0.02446266  0.23973408  0.00000000       0.002
   0.02690893  0.23973408  0.00000000       0.002
   0.02935519  0.23973408  0.00000000       0.002
   0.03180146  0.23973408  0.00000000       0.002
   0.03424773  0.23973408  0.00000000       0.002
   0.03669399  0.23973408 -0.00000000       0.002
   0.03914026  0.23973408  0.00000000       0.002
   0.04158652  0.23973408  0.00000000       0.002
   0.04403279  0.23973408  0.00000000       0.002
   0.04647906  0.23973408  0.00000000       0.002
   0.04892532  0.23973408  0.00000000       0.002
   0.05137159  0.23973408  0.00000000       0.002
   0.05381785  0.23973408 -0.00000000       0.002
   0.05626412  0.23973408  0.00000000       0.002
   0.05871039  0.23973408  0.00000000       0.002
   0.06115665  0.23973408  0.00000000       0.002
   0.06360292  0.23973408 -0.00000000       0.002
   0.06604918  0.23973408  0.00000000       0.002
   0.06849545  0.23973408  0.00000000       0.002
   0.07094172  0.23973408  0.00000000       0.002
   0.07338798  0.23973408  0.00000000       0.002
   0.07583425  0.23973408  0.00000000       0.002
   0.07828052  0.23973408  0.00000000       0.002
   0.08072678  0.23973408  0.00000000       0.002
   0.08317305  0.23973408  0.00000000       0.002
   0.08561931  0.23973408 -0.00000000       0.002
   0.08806558  0.23973408  0.00000000       0.002
   0.09051185  0.23973408  0.00000000       0.002
   0.09295811  0.23973408  0.00000000       0.002
   0.09540438  0.23973408  0.00000000       0.002
   0.09785064  0.23973408  0.00000000       0.002
   0.10029691  0.23973408  0.00000000       0.002
   0.10274318  0.23973408 -0.00000000       0.002
   0.10518944  0.23973408  0.00000000       0.002
   0.10763571  0.23973408  0.00000000       0.002
   0.11008197  0.23973408  0.00000000       0.002
   0.11252824  0.23973408  0.00000000       0.002
   0.11497451  0.23973408  0.00000000       0.002
   0.11742077  0.23973408 -0.00000000       0.002
   0.11986704  0.23973408 -0.00000000       0.002
   0.11986704  0.23973408  0.00000000       0.002
   0.12109017  0.23851094  0.00000000       0.002
   0.12231331  0.23728781 -0.00000000       0.002
   0.12353644  0.23606468 -0.00000000       0.002
   0.12475957  0.23484155  0.00000000       0.002
   0.12598270  0.23361841  0.00000000       0.002
   0.12720584  0.23239528  0.00000000       0.002
   0.12842897  0.23117215  0.00000000       0.002
   0.12965210  0.22994901  0.00000000       0.002
   0.13087524  0.22872588  0.00000000       0.002
   0.13209837  0.22750275  0.00000000       0.002
   0.13332150  0.22627961  0.00000000       0.002
   0.13454464  0.22505648  0.00000000       0.002
   0.13576777  0.22383335  0.00000000       0.002
   0.13699090  0.22261022  0.00000000       0.002
   0.13821403  0.22138708  0.00000000       0.002
   0.13943717  0.22016395  0.00000000       0.002
   0.14066030  0.21894082  0.00000000       0.002
   0.14188343  0.21771768  0.00000000       0.002
   0.14310657  0.21649455  0.00000000       0.002
   0.14432970  0.21527142  0.00000000       0.002
   0.14555283  0.21404828  0.00000000       0.002
   0.14677597  0.21282515  0.00000000       0.002
   0.14799910  0.21160202  0.00000000       0.002
   0.14922223  0.21037888  0.00000000       0.002
   0.15044537  0.20915575  0.00000000       0.002
   0.15166850  0.20793262  0.00000000       0.002
   0.15289163  0.20670949  0.00000000       0.002
   0.15411476  0.20548635  0.00000000       0.002
   0.15533790  0.20426322  0.00000000       0.002
   0.15656103  0.20304009  0.00000000       0.002
   0.15778416  0.20181695  0.00000000       0.002
   0.15900730  0.20059382  0.00000000       0.002
   0.16023043  0.19937069  0.00000000       0.002
   0.16145356  0.19814755  0.00000000       0.002
   0.16267670  0.19692442  0.00000000       0.002
   0.16389983  0.19570129  0.00000000       0.002
   0.16512296  0.19447816  0.00000000       0.002
   0.16634609  0.19325502  0.00000000       0.002
   0.16756923  0.19203189  0.00000000       0.002
   0.16879236  0.19080876  0.00000000       0.002
   0.17001549  0.18958562  0.00000000       0.002
   0.17123863  0.18836249  0.00000000       0.002
   0.17246176  0.18713936  0.00000000       0.002
   0.17368489  0.18591622  0.00000000       0.002
   0.17490803  0.18469309  0.00000000       0.002
   0.17613116  0.18346996  0.00000000       0.002
   0.17735429  0.18224682  0.00000000       0.002
   0.17857743  0.18102369  0.00000000       0.002
   0.17980056  0.17980056  0.00000000       0.002
   0.17980056  0.17980056  0.00000000       0.002
   0.17613116  0.17613116  0.00000000       0.002
   0.17246176  0.17246176  0.00000000       0.002
   0.16879236  0.16879236  0.00000000       0.002
   0.16512296  0.16512296  0.00000000       0.002
   0.16145356  0.16145356  0.00000000       0.002
   0.15778416  0.15778416  0.00000000       0.002
   0.15411476  0.15411476  0.00000000       0.002
   0.15044537  0.15044537  0.00000000       0.002
   0.14677597  0.14677597  0.00000000       0.002
   0.14310657  0.14310657  0.00000000       0.002
   0.13943717  0.13943717  0.00000000       0.002
   0.13576777  0.13576777  0.00000000       0.002
   0.13209837  0.13209837  0.00000000       0.002
   0.12842897  0.12842897  0.00000000       0.002
   0.12475957  0.12475957  0.00000000       0.002
   0.12109017  0.12109017  0.00000000       0.002
   0.11742077  0.11742077  0.00000000       0.002
   0.11375137  0.11375137  0.00000000       0.002
   0.11008197  0.11008197  0.00000000       0.002
   0.10641258  0.10641258  0.00000000       0.002
   0.10274318  0.10274318  0.00000000       0.002
   0.09907378  0.09907378  0.00000000       0.002
   0.09540438  0.09540438  0.00000000       0.002
   0.09173498  0.09173498  0.00000000       0.002
   0.08806558  0.08806558  0.00000000       0.002
   0.08439618  0.08439618  0.00000000       0.002
   0.08072678  0.08072678  0.00000000       0.002
   0.07705738  0.07705738  0.00000000       0.002
   0.07338798  0.07338798  0.00000000       0.002
   0.06971858  0.06971858  0.00000000       0.002
   0.06604918  0.06604918  0.00000000       0.002
   0.06237979  0.06237979  0.00000000       0.002
   0.05871039  0.05871039  0.00000000       0.002
   0.05504099  0.05504099  0.00000000       0.002
   0.05137159  0.05137159  0.00000000       0.002
   0.04770219  0.04770219  0.00000000       0.002
   0.04403279  0.04403279  0.00000000       0.002
   0.04036339  0.04036339  0.00000000       0.002
   0.03669399  0.03669399  0.00000000       0.002
   0.03302459  0.03302459  0.00000000       0.002
   0.02935519  0.02935519  0.00000000       0.002
   0.02568579  0.02568579  0.00000000       0.002
   0.02201639  0.02201639  0.00000000       0.002
   0.01834700  0.01834700  0.00000000       0.002
   0.01467760  0.01467760  0.00000000       0.002
   0.01100820  0.01100820  0.00000000       0.002
   0.00733880  0.00733880  0.00000000       0.002
   0.00366940  0.00366940  0.00000000       0.002
   0.00000000  0.00000000  0.00000000       0.002
   0.00000000  0.00000000  0.00000000       0.002
   0.00244627  0.00244627  0.00244627       0.002
   0.00489253  0.00489253  0.00489253       0.002
   0.00733880  0.00733880  0.00733880       0.002
   0.00978506  0.00978506  0.00978506       0.002
   0.01223133  0.01223133  0.01223133       0.002
   0.01467760  0.01467760  0.01467760       0.002
   0.01712386  0.01712386  0.01712386       0.002
   0.01957013  0.01957013  0.01957013       0.002
   0.02201639  0.02201639  0.02201639       0.002
   0.02446266  0.02446266  0.02446266       0.002
   0.02690893  0.02690893  0.02690893       0.002
   0.02935519  0.02935519  0.02935519       0.002
   0.03180146  0.03180146  0.03180146       0.002
   0.03424773  0.03424773  0.03424773       0.002
   0.03669399  0.03669399  0.03669399       0.002
   0.03914026  0.03914026  0.03914026       0.002
   0.04158652  0.04158652  0.04158652       0.002
   0.04403279  0.04403279  0.04403279       0.002
   0.04647906  0.04647906  0.04647906       0.002
   0.04892532  0.04892532  0.04892532       0.002
   0.05137159  0.05137159  0.05137159       0.002
   0.05381785  0.05381785  0.05381785       0.002
   0.05626412  0.05626412  0.05626412       0.002
   0.05871039  0.05871039  0.05871039       0.002
   0.06115665  0.06115665  0.06115665       0.002
   0.06360292  0.06360292  0.06360292       0.002
   0.06604918  0.06604918  0.06604918       0.002
   0.06849545  0.06849545  0.06849545       0.002
   0.07094172  0.07094172  0.07094172       0.002
   0.07338798  0.07338798  0.07338798       0.002
   0.07583425  0.07583425  0.07583425       0.002
   0.07828052  0.07828052  0.07828052       0.002
   0.08072678  0.08072678  0.08072678       0.002
   0.08317305  0.08317305  0.08317305       0.002
   0.08561931  0.08561931  0.08561931       0.002
   0.08806558  0.08806558  0.08806558       0.002
   0.09051185  0.09051185  0.09051185       0.002
   0.09295811  0.09295811  0.09295811       0.002
   0.09540438  0.09540438  0.09540438       0.002
   0.09785064  0.09785064  0.09785064       0.002
   0.10029691  0.10029691  0.10029691       0.002
   0.10274318  0.10274318  0.10274318       0.002
   0.10518944  0.10518944  0.10518944       0.002
   0.10763571  0.10763571  0.10763571       0.002
   0.11008197  0.11008197  0.11008197       0.002
   0.11252824  0.11252824  0.11252824       0.002
   0.11497451  0.11497451  0.11497451       0.002
   0.11742077  0.11742077  0.11742077       0.002
   0.11986704  0.11986704  0.11986704       0.002
   0.11986704  0.11986704  0.11986704       0.002
   0.11864391  0.12231331  0.11864391       0.002
   0.11742077  0.12475957  0.11742077       0.002
   0.11619764  0.12720584  0.11619764       0.002
   0.11497451  0.12965210  0.11497451       0.002
   0.11375137  0.13209837  0.11375137       0.002
   0.11252824  0.13454464  0.11252824       0.002
   0.11130511  0.13699090  0.11130511       0.002
   0.11008197  0.13943717  0.11008197       0.002
   0.10885884  0.14188343  0.10885884       0.002
   0.10763571  0.14432970  0.10763571       0.002
   0.10641258  0.14677597  0.10641258       0.002
   0.10518944  0.14922223  0.10518944       0.002
   0.10396631  0.15166850  0.10396631       0.002
   0.10274318  0.15411476  0.10274318       0.002
   0.10152004  0.15656103  0.10152004       0.002
   0.10029691  0.15900730  0.10029691       0.002
   0.09907378  0.16145356  0.09907378       0.002
   0.09785064  0.16389983  0.09785064       0.002
   0.09662751  0.16634609  0.09662751       0.002
   0.09540438  0.16879236  0.09540438       0.002
   0.09418124  0.17123863  0.09418124       0.002
   0.09295811  0.17368489  0.09295811       0.002
   0.09173498  0.17613116  0.09173498       0.002
   0.09051185  0.17857743  0.09051185       0.002
   0.08928871  0.18102369  0.08928871       0.002
   0.08806558  0.18346996  0.08806558       0.002
   0.08684245  0.18591622  0.08684245       0.002
   0.08561931  0.18836249  0.08561931       0.002
   0.08439618  0.19080876  0.08439618       0.002
   0.08317305  0.19325502  0.08317305       0.002
   0.08194991  0.19570129  0.08194991       0.002
   0.08072678  0.19814755  0.08072678       0.002
   0.07950365  0.20059382  0.07950365       0.002
   0.07828052  0.20304009  0.07828052       0.002
   0.07705738  0.20548635  0.07705738       0.002
   0.07583425  0.20793262  0.07583425       0.002
   0.07461112  0.21037888  0.07461112       0.002
   0.07338798  0.21282515  0.07338798       0.002
   0.07216485  0.21527142  0.07216485       0.002
   0.07094172  0.21771768  0.07094172       0.002
   0.06971858  0.22016395  0.06971858       0.002
   0.06849545  0.22261022  0.06849545       0.002
   0.06727232  0.22505648  0.06727232       0.002
   0.06604918  0.22750275  0.06604918       0.002
   0.06482605  0.22994901  0.06482605       0.002
   0.06360292  0.23239528  0.06360292       0.002
   0.06237979  0.23484155  0.06237979       0.002
   0.06115665  0.23728781  0.06115665       0.002
   0.05993352  0.23973408  0.05993352       0.002
   0.05993352  0.23973408  0.05993352       0.002
   0.06115665  0.23973408  0.05871039       0.002
   0.06237979  0.23973408  0.05748725       0.002
   0.06360292  0.23973408  0.05626412       0.002
   0.06482605  0.23973408  0.05504099       0.002
   0.06604918  0.23973408  0.05381785       0.002
   0.06727232  0.23973408  0.05259472       0.002
   0.06849545  0.23973408  0.05137159       0.002
   0.06971858  0.23973408  0.05014846       0.002
   0.07094172  0.23973408  0.04892532       0.002
   0.07216485  0.23973408  0.04770219       0.002
   0.07338798  0.23973408  0.04647906       0.002
   0.07461112  0.23973408  0.04525592       0.002
   0.07583425  0.23973408  0.04403279       0.002
   0.07705738  0.23973408  0.04280966       0.002
   0.07828052  0.23973408  0.04158652       0.002
   0.07950365  0.23973408  0.04036339       0.002
   0.08072678  0.23973408  0.03914026       0.002
   0.08194991  0.23973408  0.03791712       0.002
   0.08317305  0.23973408  0.03669399       0.002
   0.08439618  0.23973408  0.03547086       0.002
   0.08561931  0.23973408  0.03424773       0.002
   0.08684245  0.23973408  0.03302459       0.002
   0.08806558  0.23973408  0.03180146       0.002
   0.08928871  0.23973408  0.03057833       0.002
   0.09051185  0.23973408  0.02935519       0.002
   0.09173498  0.23973408  0.02813206       0.002
   0.09295811  0.23973408  0.02690893       0.002
   0.09418124  0.23973408  0.02568579       0.002
   0.09540438  0.23973408  0.02446266       0.002
   0.09662751  0.23973408  0.02323953       0.002
   0.09785064  0.23973408  0.02201639       0.002
   0.09907378  0.23973408  0.02079326       0.002
   0.10029691  0.23973408  0.01957013       0.002
   0.10152004  0.23973408  0.01834700       0.002
   0.10274318  0.23973408  0.01712386       0.002
   0.10396631  0.23973408  0.01590073       0.002
   0.10518944  0.23973408  0.01467760       0.002
   0.10641258  0.23973408  0.01345446       0.002
   0.10763571  0.23973408  0.01223133       0.002
   0.10885884  0.23973408  0.01100820       0.002
   0.11008197  0.23973408  0.00978506       0.002
   0.11130511  0.23973408  0.00856193       0.002
   0.11252824  0.23973408  0.00733880       0.002
   0.11375137  0.23973408  0.00611567       0.002
   0.11497451  0.23973408  0.00489253       0.002
   0.11619764  0.23973408  0.00366940       0.002
   0.11742077  0.23973408  0.00244627       0.002
   0.11864391  0.23973408  0.00122313       0.002
   0.11986704  0.23973408  0.00000000       0.002
   0.11986704  0.23973408  0.00000000       0.002
   0.11986704  0.23728781  0.00244627       0.002
   0.11986704  0.23484155  0.00489253       0.002
   0.11986704  0.23239528  0.00733880       0.002
   0.11986704  0.22994901  0.00978506       0.002
   0.11986704  0.22750275  0.01223133       0.002
   0.11986704  0.22505648  0.01467760       0.002
   0.11986704  0.22261022  0.01712386       0.002
   0.11986704  0.22016395  0.01957013       0.002
   0.11986704  0.21771768  0.02201639       0.002
   0.11986704  0.21527142  0.02446266       0.002
   0.11986704  0.21282515  0.02690893       0.002
   0.11986704  0.21037888  0.02935519       0.002
   0.11986704  0.20793262  0.03180146       0.002
   0.11986704  0.20548635  0.03424773       0.002
   0.11986704  0.20304009  0.03669399       0.002
   0.11986704  0.20059382  0.03914026       0.002
   0.11986704  0.19814755  0.04158652       0.002
   0.11986704  0.19570129  0.04403279       0.002
   0.11986704  0.19325502  0.04647906       0.002
   0.11986704  0.19080876  0.04892532       0.002
   0.11986704  0.18836249  0.05137159       0.002
   0.11986704  0.18591622  0.05381785       0.002
   0.11986704  0.18346996  0.05626412       0.002
   0.11986704  0.18102369  0.05871039       0.002
   0.11986704  0.17857743  0.06115665       0.002
   0.11986704  0.17613116  0.06360292       0.002
   0.11986704  0.17368489  0.06604918       0.002
   0.11986704  0.17123863  0.06849545       0.002
   0.11986704  0.16879236  0.07094172       0.002
   0.11986704  0.16634609  0.07338798       0.002
   0.11986704  0.16389983  0.07583425       0.002
   0.11986704  0.16145356  0.07828052       0.002
   0.11986704  0.15900730  0.08072678       0.002
   0.11986704  0.15656103  0.08317305       0.002
   0.11986704  0.15411476  0.08561931       0.002
   0.11986704  0.15166850  0.08806558       0.002
   0.11986704  0.14922223  0.09051185       0.002
   0.11986704  0.14677597  0.09295811       0.002
   0.11986704  0.14432970  0.09540438       0.002
   0.11986704  0.14188343  0.09785064       0.002
   0.11986704  0.13943717  0.10029691       0.002
   0.11986704  0.13699090  0.10274318       0.002
   0.11986704  0.13454464  0.10518944       0.002
   0.11986704  0.13209837  0.10763571       0.002
   0.11986704  0.12965210  0.11008197       0.002
   0.11986704  0.12720584  0.11252824       0.002
   0.11986704  0.12475957  0.11497451       0.002
   0.11986704  0.12231331  0.11742077       0.002
   0.11986704  0.11986704  0.11986704       0.002
   0.11986704  0.11986704  0.11986704       0.002
   0.12109017  0.12109017  0.11742077       0.002
   0.12231331  0.12231331  0.11497451       0.002
   0.12353644  0.12353644  0.11252824       0.002
   0.12475957  0.12475957  0.11008197       0.002
   0.12598270  0.12598270  0.10763571       0.002
   0.12720584  0.12720584  0.10518944       0.002
   0.12842897  0.12842897  0.10274318       0.002
   0.12965210  0.12965210  0.10029691       0.002
   0.13087524  0.13087524  0.09785064       0.002
   0.13209837  0.13209837  0.09540438       0.002
   0.13332150  0.13332150  0.09295811       0.002
   0.13454464  0.13454464  0.09051185       0.002
   0.13576777  0.13576777  0.08806558       0.002
   0.13699090  0.13699090  0.08561931       0.002
   0.13821403  0.13821403  0.08317305       0.002
   0.13943717  0.13943717  0.08072678       0.002
   0.14066030  0.14066030  0.07828052       0.002
   0.14188343  0.14188343  0.07583425       0.002
   0.14310657  0.14310657  0.07338798       0.002
   0.14432970  0.14432970  0.07094172       0.002
   0.14555283  0.14555283  0.06849545       0.002
   0.14677597  0.14677597  0.06604918       0.002
   0.14799910  0.14799910  0.06360292       0.002
   0.14922223  0.14922223  0.06115665       0.002
   0.15044537  0.15044537  0.05871039       0.002
   0.15166850  0.15166850  0.05626412       0.002
   0.15289163  0.15289163  0.05381785       0.002
   0.15411476  0.15411476  0.05137159       0.002
   0.15533790  0.15533790  0.04892532       0.002
   0.15656103  0.15656103  0.04647906       0.002
   0.15778416  0.15778416  0.04403279       0.002
   0.15900730  0.15900730  0.04158652       0.002
   0.16023043  0.16023043  0.03914026       0.002
   0.16145356  0.16145356  0.03669399       0.002
   0.16267670  0.16267670  0.03424773       0.002
   0.16389983  0.16389983  0.03180146       0.002
   0.16512296  0.16512296  0.02935519       0.002
   0.16634609  0.16634609  0.02690893       0.002
   0.16756923  0.16756923  0.02446266       0.002
   0.16879236  0.16879236  0.02201639       0.002
   0.17001549  0.17001549  0.01957013       0.002
   0.17123863  0.17123863  0.01712386       0.002
   0.17246176  0.17246176  0.01467760       0.002
   0.17368489  0.17368489  0.01223133       0.002
   0.17490803  0.17490803  0.00978506       0.002
   0.17613116  0.17613116  0.00733880       0.002
   0.17735429  0.17735429  0.00489253       0.002
   0.17857743  0.17857743  0.00244627       0.002
   0.17980056  0.17980056  0.00000000       0.002
   0.05993352  0.23973408  0.05993352       0.002
   0.05871039  0.23973408  0.05871039       0.002
   0.05748725  0.23973408  0.05748725       0.002
   0.05626412  0.23973408  0.05626412       0.002
   0.05504099  0.23973408  0.05504099       0.002
   0.05381785  0.23973408  0.05381785       0.002
   0.05259472  0.23973408  0.05259472       0.002
   0.05137159  0.23973408  0.05137159       0.002
   0.05014846  0.23973408  0.05014846       0.002
   0.04892532  0.23973408  0.04892532       0.002
   0.04770219  0.23973408  0.04770219       0.002
   0.04647906  0.23973408  0.04647906       0.002
   0.04525592  0.23973408  0.04525592       0.002
   0.04403279  0.23973408  0.04403279       0.002
   0.04280966  0.23973408  0.04280966       0.002
   0.04158652  0.23973408  0.04158652       0.002
   0.04036339  0.23973408  0.04036339       0.002
   0.03914026  0.23973408  0.03914026       0.002
   0.03791712  0.23973408  0.03791712       0.002
   0.03669399  0.23973408  0.03669399       0.002
   0.03547086  0.23973408  0.03547086       0.002
   0.03424773  0.23973408  0.03424773       0.002
   0.03302459  0.23973408  0.03302459       0.002
   0.03180146  0.23973408  0.03180146       0.002
   0.03057833  0.23973408  0.03057833       0.002
   0.02935519  0.23973408  0.02935519       0.002
   0.02813206  0.23973408  0.02813206       0.002
   0.02690893  0.23973408  0.02690893       0.002
   0.02568579  0.23973408  0.02568579       0.002
   0.02446266  0.23973408  0.02446266       0.002
   0.02323953  0.23973408  0.02323953       0.002
   0.02201639  0.23973408  0.02201639       0.002
   0.02079326  0.23973408  0.02079326       0.002
   0.01957013  0.23973408  0.01957013       0.002
   0.01834700  0.23973408  0.01834700       0.002
   0.01712386  0.23973408  0.01712386       0.002
   0.01590073  0.23973408  0.01590073       0.002
   0.01467760  0.23973408  0.01467760       0.002
   0.01345446  0.23973408  0.01345446       0.002
   0.01223133  0.23973408  0.01223133       0.002
   0.01100820  0.23973408  0.01100820       0.002
   0.00978506  0.23973408  0.00978506       0.002
   0.00856193  0.23973408  0.00856193       0.002
   0.00733880  0.23973408  0.00733880       0.002
   0.00611567  0.23973408  0.00611567       0.002
   0.00489253  0.23973408  0.00489253       0.002
   0.00366940  0.23973408  0.00366940       0.002
   0.00244627  0.23973408  0.00244627       0.002
   0.00122313  0.23973408  0.00122313       0.002
   0.00000000  0.23973408  0.00000000       0.002
 
 k-points in reciprocal lattice and weights: kpoints along symmetry lines            
   0.00000000  0.00000000  0.00000000       0.002
   0.01020408  0.00000000  0.01020408       0.002
   0.02040816  0.00000000  0.02040816       0.002
   0.03061224  0.00000000  0.03061224       0.002
   0.04081633  0.00000000  0.04081633       0.002
   0.05102041  0.00000000  0.05102041       0.002
   0.06122449  0.00000000  0.06122449       0.002
   0.07142857  0.00000000  0.07142857       0.002
   0.08163265  0.00000000  0.08163265       0.002
   0.09183673  0.00000000  0.09183673       0.002
   0.10204082  0.00000000  0.10204082       0.002
   0.11224490  0.00000000  0.11224490       0.002
   0.12244898  0.00000000  0.12244898       0.002
   0.13265306  0.00000000  0.13265306       0.002
   0.14285714  0.00000000  0.14285714       0.002
   0.15306122  0.00000000  0.15306122       0.002
   0.16326531  0.00000000  0.16326531       0.002
   0.17346939  0.00000000  0.17346939       0.002
   0.18367347  0.00000000  0.18367347       0.002
   0.19387755  0.00000000  0.19387755       0.002
   0.20408163  0.00000000  0.20408163       0.002
   0.21428571  0.00000000  0.21428571       0.002
   0.22448980  0.00000000  0.22448980       0.002
   0.23469388  0.00000000  0.23469388       0.002
   0.24489796  0.00000000  0.24489796       0.002
   0.25510204  0.00000000  0.25510204       0.002
   0.26530612  0.00000000  0.26530612       0.002
   0.27551020  0.00000000  0.27551020       0.002
   0.28571429  0.00000000  0.28571429       0.002
   0.29591837  0.00000000  0.29591837       0.002
   0.30612245  0.00000000  0.30612245       0.002
   0.31632653  0.00000000  0.31632653       0.002
   0.32653061  0.00000000  0.32653061       0.002
   0.33673469  0.00000000  0.33673469       0.002
   0.34693878  0.00000000  0.34693878       0.002
   0.35714286  0.00000000  0.35714286       0.002
   0.36734694  0.00000000  0.36734694       0.002
   0.37755102  0.00000000  0.37755102       0.002
   0.38775510  0.00000000  0.38775510       0.002
   0.39795918  0.00000000  0.39795918       0.002
   0.40816327  0.00000000  0.40816327       0.002
   0.41836735  0.00000000  0.41836735       0.002
   0.42857143  0.00000000  0.42857143       0.002
   0.43877551  0.00000000  0.43877551       0.002
   0.44897959  0.00000000  0.44897959       0.002
   0.45918367  0.00000000  0.45918367       0.002
   0.46938776  0.00000000  0.46938776       0.002
   0.47959184  0.00000000  0.47959184       0.002
   0.48979592  0.00000000  0.48979592       0.002
   0.50000000  0.00000000  0.50000000       0.002
   0.50000000  0.00000000  0.50000000       0.002
   0.50000000  0.00510204  0.50510204       0.002
   0.50000000  0.01020408  0.51020408       0.002
   0.50000000  0.01530612  0.51530612       0.002
   0.50000000  0.02040816  0.52040816       0.002
   0.50000000  0.02551020  0.52551020       0.002
   0.50000000  0.03061224  0.53061224       0.002
   0.50000000  0.03571429  0.53571429       0.002
   0.50000000  0.04081633  0.54081633       0.002
   0.50000000  0.04591837  0.54591837       0.002
   0.50000000  0.05102041  0.55102041       0.002
   0.50000000  0.05612245  0.55612245       0.002
   0.50000000  0.06122449  0.56122449       0.002
   0.50000000  0.06632653  0.56632653       0.002
   0.50000000  0.07142857  0.57142857       0.002
   0.50000000  0.07653061  0.57653061       0.002
   0.50000000  0.08163265  0.58163265       0.002
   0.50000000  0.08673469  0.58673469       0.002
   0.50000000  0.09183673  0.59183673       0.002
   0.50000000  0.09693878  0.59693878       0.002
   0.50000000  0.10204082  0.60204082       0.002
   0.50000000  0.10714286  0.60714286       0.002
   0.50000000  0.11224490  0.61224490       0.002
   0.50000000  0.11734694  0.61734694       0.002
   0.50000000  0.12244898  0.62244898       0.002
   0.50000000  0.12755102  0.62755102       0.002
   0.50000000  0.13265306  0.63265306       0.002
   0.50000000  0.13775510  0.63775510       0.002
   0.50000000  0.14285714  0.64285714       0.002
   0.50000000  0.14795918  0.64795918       0.002
   0.50000000  0.15306122  0.65306122       0.002
   0.50000000  0.15816327  0.65816327       0.002
   0.50000000  0.16326531  0.66326531       0.002
   0.50000000  0.16836735  0.66836735       0.002
   0.50000000  0.17346939  0.67346939       0.002
   0.50000000  0.17857143  0.67857143       0.002
   0.50000000  0.18367347  0.68367347       0.002
   0.50000000  0.18877551  0.68877551       0.002
   0.50000000  0.19387755  0.69387755       0.002
   0.50000000  0.19897959  0.69897959       0.002
   0.50000000  0.20408163  0.70408163       0.002
   0.50000000  0.20918367  0.70918367       0.002
   0.50000000  0.21428571  0.71428571       0.002
   0.50000000  0.21938776  0.71938776       0.002
   0.50000000  0.22448980  0.72448980       0.002
   0.50000000  0.22959184  0.72959184       0.002
   0.50000000  0.23469388  0.73469388       0.002
   0.50000000  0.23979592  0.73979592       0.002
   0.50000000  0.24489796  0.74489796       0.002
   0.50000000  0.25000000  0.75000000       0.002
   0.50000000  0.25000000  0.75000000       0.002
   0.49744898  0.25255102  0.75000000       0.002
   0.49489796  0.25510204  0.75000000       0.002
   0.49234694  0.25765306  0.75000000       0.002
   0.48979592  0.26020408  0.75000000       0.002
   0.48724490  0.26275510  0.75000000       0.002
   0.48469388  0.26530612  0.75000000       0.002
   0.48214286  0.26785714  0.75000000       0.002
   0.47959184  0.27040816  0.75000000       0.002
   0.47704082  0.27295918  0.75000000       0.002
   0.47448980  0.27551020  0.75000000       0.002
   0.47193878  0.27806122  0.75000000       0.002
   0.46938776  0.28061224  0.75000000       0.002
   0.46683673  0.28316327  0.75000000       0.002
   0.46428571  0.28571429  0.75000000       0.002
   0.46173469  0.28826531  0.75000000       0.002
   0.45918367  0.29081633  0.75000000       0.002
   0.45663265  0.29336735  0.75000000       0.002
   0.45408163  0.29591837  0.75000000       0.002
   0.45153061  0.29846939  0.75000000       0.002
   0.44897959  0.30102041  0.75000000       0.002
   0.44642857  0.30357143  0.75000000       0.002
   0.44387755  0.30612245  0.75000000       0.002
   0.44132653  0.30867347  0.75000000       0.002
   0.43877551  0.31122449  0.75000000       0.002
   0.43622449  0.31377551  0.75000000       0.002
   0.43367347  0.31632653  0.75000000       0.002
   0.43112245  0.31887755  0.75000000       0.002
   0.42857143  0.32142857  0.75000000       0.002
   0.42602041  0.32397959  0.75000000       0.002
   0.42346939  0.32653061  0.75000000       0.002
   0.42091837  0.32908163  0.75000000       0.002
   0.41836735  0.33163265  0.75000000       0.002
   0.41581633  0.33418367  0.75000000       0.002
   0.41326531  0.33673469  0.75000000       0.002
   0.41071429  0.33928571  0.75000000       0.002
   0.40816327  0.34183673  0.75000000       0.002
   0.40561224  0.34438776  0.75000000       0.002
   0.40306122  0.34693878  0.75000000       0.002
   0.40051020  0.34948980  0.75000000       0.002
   0.39795918  0.35204082  0.75000000       0.002
   0.39540816  0.35459184  0.75000000       0.002
   0.39285714  0.35714286  0.75000000       0.002
   0.39030612  0.35969388  0.75000000       0.002
   0.38775510  0.36224490  0.75000000       0.002
   0.38520408  0.36479592  0.75000000       0.002
   0.38265306  0.36734694  0.75000000       0.002
   0.38010204  0.36989796  0.75000000       0.002
   0.37755102  0.37244898  0.75000000       0.002
   0.37500000  0.37500000  0.75000000       0.002
   0.37500000  0.37500000  0.75000000       0.002
   0.36734694  0.36734694  0.73469388       0.002
   0.35969388  0.35969388  0.71938776       0.002
   0.35204082  0.35204082  0.70408163       0.002
   0.34438776  0.34438776  0.68877551       0.002
   0.33673469  0.33673469  0.67346939       0.002
   0.32908163  0.32908163  0.65816327       0.002
   0.32142857  0.32142857  0.64285714       0.002
   0.31377551  0.31377551  0.62755102       0.002
   0.30612245  0.30612245  0.61224490       0.002
   0.29846939  0.29846939  0.59693878       0.002
   0.29081633  0.29081633  0.58163265       0.002
   0.28316327  0.28316327  0.56632653       0.002
   0.27551020  0.27551020  0.55102041       0.002
   0.26785714  0.26785714  0.53571429       0.002
   0.26020408  0.26020408  0.52040816       0.002
   0.25255102  0.25255102  0.50510204       0.002
   0.24489796  0.24489796  0.48979592       0.002
   0.23724490  0.23724490  0.47448980       0.002
   0.22959184  0.22959184  0.45918367       0.002
   0.22193878  0.22193878  0.44387755       0.002
   0.21428571  0.21428571  0.42857143       0.002
   0.20663265  0.20663265  0.41326531       0.002
   0.19897959  0.19897959  0.39795918       0.002
   0.19132653  0.19132653  0.38265306       0.002
   0.18367347  0.18367347  0.36734694       0.002
   0.17602041  0.17602041  0.35204082       0.002
   0.16836735  0.16836735  0.33673469       0.002
   0.16071429  0.16071429  0.32142857       0.002
   0.15306122  0.15306122  0.30612245       0.002
   0.14540816  0.14540816  0.29081633       0.002
   0.13775510  0.13775510  0.27551020       0.002
   0.13010204  0.13010204  0.26020408       0.002
   0.12244898  0.12244898  0.24489796       0.002
   0.11479592  0.11479592  0.22959184       0.002
   0.10714286  0.10714286  0.21428571       0.002
   0.09948980  0.09948980  0.19897959       0.002
   0.09183673  0.09183673  0.18367347       0.002
   0.08418367  0.08418367  0.16836735       0.002
   0.07653061  0.07653061  0.15306122       0.002
   0.06887755  0.06887755  0.13775510       0.002
   0.06122449  0.06122449  0.12244898       0.002
   0.05357143  0.05357143  0.10714286       0.002
   0.04591837  0.04591837  0.09183673       0.002
   0.03826531  0.03826531  0.07653061       0.002
   0.03061224  0.03061224  0.06122449       0.002
   0.02295918  0.02295918  0.04591837       0.002
   0.01530612  0.01530612  0.03061224       0.002
   0.00765306  0.00765306  0.01530612       0.002
   0.00000000  0.00000000  0.00000000       0.002
   0.00000000  0.00000000  0.00000000       0.002
   0.01020408  0.01020408  0.01020408       0.002
   0.02040816  0.02040816  0.02040816       0.002
   0.03061224  0.03061224  0.03061224       0.002
   0.04081633  0.04081633  0.04081633       0.002
   0.05102041  0.05102041  0.05102041       0.002
   0.06122449  0.06122449  0.06122449       0.002
   0.07142857  0.07142857  0.07142857       0.002
   0.08163265  0.08163265  0.08163265       0.002
   0.09183673  0.09183673  0.09183673       0.002
   0.10204082  0.10204082  0.10204082       0.002
   0.11224490  0.11224490  0.11224490       0.002
   0.12244898  0.12244898  0.12244898       0.002
   0.13265306  0.13265306  0.13265306       0.002
   0.14285714  0.14285714  0.14285714       0.002
   0.15306122  0.15306122  0.15306122       0.002
   0.16326531  0.16326531  0.16326531       0.002
   0.17346939  0.17346939  0.17346939       0.002
   0.18367347  0.18367347  0.18367347       0.002
   0.19387755  0.19387755  0.19387755       0.002
   0.20408163  0.20408163  0.20408163       0.002
   0.21428571  0.21428571  0.21428571       0.002
   0.22448980  0.22448980  0.22448980       0.002
   0.23469388  0.23469388  0.23469388       0.002
   0.24489796  0.24489796  0.24489796       0.002
   0.25510204  0.25510204  0.25510204       0.002
   0.26530612  0.26530612  0.26530612       0.002
   0.27551020  0.27551020  0.27551020       0.002
   0.28571429  0.28571429  0.28571429       0.002
   0.29591837  0.29591837  0.29591837       0.002
   0.30612245  0.30612245  0.30612245       0.002
   0.31632653  0.31632653  0.31632653       0.002
   0.32653061  0.32653061  0.32653061       0.002
   0.33673469  0.33673469  0.33673469       0.002
   0.34693878  0.34693878  0.34693878       0.002
   0.35714286  0.35714286  0.35714286       0.002
   0.36734694  0.36734694  0.36734694       0.002
   0.37755102  0.37755102  0.37755102       0.002
   0.38775510  0.38775510  0.38775510       0.002
   0.39795918  0.39795918  0.39795918       0.002
   0.40816327  0.40816327  0.40816327       0.002
   0.41836735  0.41836735  0.41836735       0.002
   0.42857143  0.42857143  0.42857143       0.002
   0.43877551  0.43877551  0.43877551       0.002
   0.44897959  0.44897959  0.44897959       0.002
   0.45918367  0.45918367  0.45918367       0.002
   0.46938776  0.46938776  0.46938776       0.002
   0.47959184  0.47959184  0.47959184       0.002
   0.48979592  0.48979592  0.48979592       0.002
   0.50000000  0.50000000  0.50000000       0.002
   0.50000000  0.50000000  0.50000000       0.002
   0.50255102  0.49489796  0.50255102       0.002
   0.50510204  0.48979592  0.50510204       0.002
   0.50765306  0.48469388  0.50765306       0.002
   0.51020408  0.47959184  0.51020408       0.002
   0.51275510  0.47448980  0.51275510       0.002
   0.51530612  0.46938776  0.51530612       0.002
   0.51785714  0.46428571  0.51785714       0.002
   0.52040816  0.45918367  0.52040816       0.002
   0.52295918  0.45408163  0.52295918       0.002
   0.52551020  0.44897959  0.52551020       0.002
   0.52806122  0.44387755  0.52806122       0.002
   0.53061224  0.43877551  0.53061224       0.002
   0.53316327  0.43367347  0.53316327       0.002
   0.53571429  0.42857143  0.53571429       0.002
   0.53826531  0.42346939  0.53826531       0.002
   0.54081633  0.41836735  0.54081633       0.002
   0.54336735  0.41326531  0.54336735       0.002
   0.54591837  0.40816327  0.54591837       0.002
   0.54846939  0.40306122  0.54846939       0.002
   0.55102041  0.39795918  0.55102041       0.002
   0.55357143  0.39285714  0.55357143       0.002
   0.55612245  0.38775510  0.55612245       0.002
   0.55867347  0.38265306  0.55867347       0.002
   0.56122449  0.37755102  0.56122449       0.002
   0.56377551  0.37244898  0.56377551       0.002
   0.56632653  0.36734694  0.56632653       0.002
   0.56887755  0.36224490  0.56887755       0.002
   0.57142857  0.35714286  0.57142857       0.002
   0.57397959  0.35204082  0.57397959       0.002
   0.57653061  0.34693878  0.57653061       0.002
   0.57908163  0.34183673  0.57908163       0.002
   0.58163265  0.33673469  0.58163265       0.002
   0.58418367  0.33163265  0.58418367       0.002
   0.58673469  0.32653061  0.58673469       0.002
   0.58928571  0.32142857  0.58928571       0.002
   0.59183673  0.31632653  0.59183673       0.002
   0.59438776  0.31122449  0.59438776       0.002
   0.59693878  0.30612245  0.59693878       0.002
   0.59948980  0.30102041  0.59948980       0.002
   0.60204082  0.29591837  0.60204082       0.002
   0.60459184  0.29081633  0.60459184       0.002
   0.60714286  0.28571429  0.60714286       0.002
   0.60969388  0.28061224  0.60969388       0.002
   0.61224490  0.27551020  0.61224490       0.002
   0.61479592  0.27040816  0.61479592       0.002
   0.61734694  0.26530612  0.61734694       0.002
   0.61989796  0.26020408  0.61989796       0.002
   0.62244898  0.25510204  0.62244898       0.002
   0.62500000  0.25000000  0.62500000       0.002
   0.62500000  0.25000000  0.62500000       0.002
   0.62244898  0.25000000  0.62755102       0.002
   0.61989796  0.25000000  0.63010204       0.002
   0.61734694  0.25000000  0.63265306       0.002
   0.61479592  0.25000000  0.63520408       0.002
   0.61224490  0.25000000  0.63775510       0.002
   0.60969388  0.25000000  0.64030612       0.002
   0.60714286  0.25000000  0.64285714       0.002
   0.60459184  0.25000000  0.64540816       0.002
   0.60204082  0.25000000  0.64795918       0.002
   0.59948980  0.25000000  0.65051020       0.002
   0.59693878  0.25000000  0.65306122       0.002
   0.59438776  0.25000000  0.65561224       0.002
   0.59183673  0.25000000  0.65816327       0.002
   0.58928571  0.25000000  0.66071429       0.002
   0.58673469  0.25000000  0.66326531       0.002
   0.58418367  0.25000000  0.66581633       0.002
   0.58163265  0.25000000  0.66836735       0.002
   0.57908163  0.25000000  0.67091837       0.002
   0.57653061  0.25000000  0.67346939       0.002
   0.57397959  0.25000000  0.67602041       0.002
   0.57142857  0.25000000  0.67857143       0.002
   0.56887755  0.25000000  0.68112245       0.002
   0.56632653  0.25000000  0.68367347       0.002
   0.56377551  0.25000000  0.68622449       0.002
   0.56122449  0.25000000  0.68877551       0.002
   0.55867347  0.25000000  0.69132653       0.002
   0.55612245  0.25000000  0.69387755       0.002
   0.55357143  0.25000000  0.69642857       0.002
   0.55102041  0.25000000  0.69897959       0.002
   0.54846939  0.25000000  0.70153061       0.002
   0.54591837  0.25000000  0.70408163       0.002
   0.54336735  0.25000000  0.70663265       0.002
   0.54081633  0.25000000  0.70918367       0.002
   0.53826531  0.25000000  0.71173469       0.002
   0.53571429  0.25000000  0.71428571       0.002
   0.53316327  0.25000000  0.71683673       0.002
   0.53061224  0.25000000  0.71938776       0.002
   0.52806122  0.25000000  0.72193878       0.002
   0.52551020  0.25000000  0.72448980       0.002
   0.52295918  0.25000000  0.72704082       0.002
   0.52040816  0.25000000  0.72959184       0.002
   0.51785714  0.25000000  0.73214286       0.002
   0.51530612  0.25000000  0.73469388       0.002
   0.51275510  0.25000000  0.73724490       0.002
   0.51020408  0.25000000  0.73979592       0.002
   0.50765306  0.25000000  0.74234694       0.002
   0.50510204  0.25000000  0.74489796       0.002
   0.50255102  0.25000000  0.74744898       0.002
   0.50000000  0.25000000  0.75000000       0.002
   0.50000000  0.25000000  0.75000000       0.002
   0.50000000  0.25510204  0.74489796       0.002
   0.50000000  0.26020408  0.73979592       0.002
   0.50000000  0.26530612  0.73469388       0.002
   0.50000000  0.27040816  0.72959184       0.002
   0.50000000  0.27551020  0.72448980       0.002
   0.50000000  0.28061224  0.71938776       0.002
   0.50000000  0.28571429  0.71428571       0.002
   0.50000000  0.29081633  0.70918367       0.002
   0.50000000  0.29591837  0.70408163       0.002
   0.50000000  0.30102041  0.69897959       0.002
   0.50000000  0.30612245  0.69387755       0.002
   0.50000000  0.31122449  0.68877551       0.002
   0.50000000  0.31632653  0.68367347       0.002
   0.50000000  0.32142857  0.67857143       0.002
   0.50000000  0.32653061  0.67346939       0.002
   0.50000000  0.33163265  0.66836735       0.002
   0.50000000  0.33673469  0.66326531       0.002
   0.50000000  0.34183673  0.65816327       0.002
   0.50000000  0.34693878  0.65306122       0.002
   0.50000000  0.35204082  0.64795918       0.002
   0.50000000  0.35714286  0.64285714       0.002
   0.50000000  0.36224490  0.63775510       0.002
   0.50000000  0.36734694  0.63265306       0.002
   0.50000000  0.37244898  0.62755102       0.002
   0.50000000  0.37755102  0.62244898       0.002
   0.50000000  0.38265306  0.61734694       0.002
   0.50000000  0.38775510  0.61224490       0.002
   0.50000000  0.39285714  0.60714286       0.002
   0.50000000  0.39795918  0.60204082       0.002
   0.50000000  0.40306122  0.59693878       0.002
   0.50000000  0.40816327  0.59183673       0.002
   0.50000000  0.41326531  0.58673469       0.002
   0.50000000  0.41836735  0.58163265       0.002
   0.50000000  0.42346939  0.57653061       0.002
   0.50000000  0.42857143  0.57142857       0.002
   0.50000000  0.43367347  0.56632653       0.002
   0.50000000  0.43877551  0.56122449       0.002
   0.50000000  0.44387755  0.55612245       0.002
   0.50000000  0.44897959  0.55102041       0.002
   0.50000000  0.45408163  0.54591837       0.002
   0.50000000  0.45918367  0.54081633       0.002
   0.50000000  0.46428571  0.53571429       0.002
   0.50000000  0.46938776  0.53061224       0.002
   0.50000000  0.47448980  0.52551020       0.002
   0.50000000  0.47959184  0.52040816       0.002
   0.50000000  0.48469388  0.51530612       0.002
   0.50000000  0.48979592  0.51020408       0.002
   0.50000000  0.49489796  0.50510204       0.002
   0.50000000  0.50000000  0.50000000       0.002
   0.50000000  0.50000000  0.50000000       0.002
   0.49744898  0.49744898  0.50510204       0.002
   0.49489796  0.49489796  0.51020408       0.002
   0.49234694  0.49234694  0.51530612       0.002
   0.48979592  0.48979592  0.52040816       0.002
   0.48724490  0.48724490  0.52551020       0.002
   0.48469388  0.48469388  0.53061224       0.002
   0.48214286  0.48214286  0.53571429       0.002
   0.47959184  0.47959184  0.54081633       0.002
   0.47704082  0.47704082  0.54591837       0.002
   0.47448980  0.47448980  0.55102041       0.002
   0.47193878  0.47193878  0.55612245       0.002
   0.46938776  0.46938776  0.56122449       0.002
   0.46683673  0.46683673  0.56632653       0.002
   0.46428571  0.46428571  0.57142857       0.002
   0.46173469  0.46173469  0.57653061       0.002
   0.45918367  0.45918367  0.58163265       0.002
   0.45663265  0.45663265  0.58673469       0.002
   0.45408163  0.45408163  0.59183673       0.002
   0.45153061  0.45153061  0.59693878       0.002
   0.44897959  0.44897959  0.60204082       0.002
   0.44642857  0.44642857  0.60714286       0.002
   0.44387755  0.44387755  0.61224490       0.002
   0.44132653  0.44132653  0.61734694       0.002
   0.43877551  0.43877551  0.62244898       0.002
   0.43622449  0.43622449  0.62755102       0.002
   0.43367347  0.43367347  0.63265306       0.002
   0.43112245  0.43112245  0.63775510       0.002
   0.42857143  0.42857143  0.64285714       0.002
   0.42602041  0.42602041  0.64795918       0.002
   0.42346939  0.42346939  0.65306122       0.002
   0.42091837  0.42091837  0.65816327       0.002
   0.41836735  0.41836735  0.66326531       0.002
   0.41581633  0.41581633  0.66836735       0.002
   0.41326531  0.41326531  0.67346939       0.002
   0.41071429  0.41071429  0.67857143       0.002
   0.40816327  0.40816327  0.68367347       0.002
   0.40561224  0.40561224  0.68877551       0.002
   0.40306122  0.40306122  0.69387755       0.002
   0.40051020  0.40051020  0.69897959       0.002
   0.39795918  0.39795918  0.70408163       0.002
   0.39540816  0.39540816  0.70918367       0.002
   0.39285714  0.39285714  0.71428571       0.002
   0.39030612  0.39030612  0.71938776       0.002
   0.38775510  0.38775510  0.72448980       0.002
   0.38520408  0.38520408  0.72959184       0.002
   0.38265306  0.38265306  0.73469388       0.002
   0.38010204  0.38010204  0.73979592       0.002
   0.37755102  0.37755102  0.74489796       0.002
   0.37500000  0.37500000  0.75000000       0.002
   0.62500000  0.25000000  0.62500000       0.002
   0.62244898  0.24489796  0.62244898       0.002
   0.61989796  0.23979592  0.61989796       0.002
   0.61734694  0.23469388  0.61734694       0.002
   0.61479592  0.22959184  0.61479592       0.002
   0.61224490  0.22448980  0.61224490       0.002
   0.60969388  0.21938776  0.60969388       0.002
   0.60714286  0.21428571  0.60714286       0.002
   0.60459184  0.20918367  0.60459184       0.002
   0.60204082  0.20408163  0.60204082       0.002
   0.59948980  0.19897959  0.59948980       0.002
   0.59693878  0.19387755  0.59693878       0.002
   0.59438776  0.18877551  0.59438776       0.002
   0.59183673  0.18367347  0.59183673       0.002
   0.58928571  0.17857143  0.58928571       0.002
   0.58673469  0.17346939  0.58673469       0.002
   0.58418367  0.16836735  0.58418367       0.002
   0.58163265  0.16326531  0.58163265       0.002
   0.57908163  0.15816327  0.57908163       0.002
   0.57653061  0.15306122  0.57653061       0.002
   0.57397959  0.14795918  0.57397959       0.002
   0.57142857  0.14285714  0.57142857       0.002
   0.56887755  0.13775510  0.56887755       0.002
   0.56632653  0.13265306  0.56632653       0.002
   0.56377551  0.12755102  0.56377551       0.002
   0.56122449  0.12244898  0.56122449       0.002
   0.55867347  0.11734694  0.55867347       0.002
   0.55612245  0.11224490  0.55612245       0.002
   0.55357143  0.10714286  0.55357143       0.002
   0.55102041  0.10204082  0.55102041       0.002
   0.54846939  0.09693878  0.54846939       0.002
   0.54591837  0.09183673  0.54591837       0.002
   0.54336735  0.08673469  0.54336735       0.002
   0.54081633  0.08163265  0.54081633       0.002
   0.53826531  0.07653061  0.53826531       0.002
   0.53571429  0.07142857  0.53571429       0.002
   0.53316327  0.06632653  0.53316327       0.002
   0.53061224  0.06122449  0.53061224       0.002
   0.52806122  0.05612245  0.52806122       0.002
   0.52551020  0.05102041  0.52551020       0.002
   0.52295918  0.04591837  0.52295918       0.002
   0.52040816  0.04081633  0.52040816       0.002
   0.51785714  0.03571429  0.51785714       0.002
   0.51530612  0.03061224  0.51530612       0.002
   0.51275510  0.02551020  0.51275510       0.002
   0.51020408  0.02040816  0.51020408       0.002
   0.50765306  0.01530612  0.50765306       0.002
   0.50510204  0.01020408  0.50510204       0.002
   0.50255102  0.00510204  0.50255102       0.002
   0.50000000  0.00000000  0.50000000       0.002
 
 position of ions in fractional coordinates (direct lattice) 
   0.00000000  0.00000000  0.00000000
 
 position of ions in cartesian coordinates  (Angst):
   0.00000000  0.00000000  0.00000000
 
 Euler angles ALPHA=     0.0000000  BETA=     0.0000000

 transformation matrix from SAXIS to cartesian coordinates
 ---------------------------------------------------------
     1.0000000 m_x     0.0000000 m_y     0.0000000 m_z
     0.0000000 m_x     1.0000000 m_y     0.0000000 m_z
     0.0000000 m_x     0.0000000 m_y     1.0000000 m_z

 transformation matrix from cartesian coordinates to SAXIS
 ---------------------------------------------------------
     1.0000000 m_x     0.0000000 m_y     0.0000000 m_z
     0.0000000 m_x     1.0000000 m_y     0.0000000 m_z
     0.0000000 m_x     0.0000000 m_y     1.0000000 m_z




--------------------------------------------------------------------------------------------------------


 k-point  1 :   0.0000 0.0000 0.0000  plane waves:    1218
 k-point  2 :   0.0102 0.0000 0.0102  plane waves:    1218
 k-point  3 :   0.0204 0.0000 0.0204  plane waves:    1218
 k-point  4 :   0.0306 0.0000 0.0306  plane waves:    1218
 k-point  5 :   0.0408 0.0000 0.0408  plane waves:    1218
 k-point  6 :   0.0510 0.0000 0.0510  plane waves:    1210
 k-point  7 :   0.0612 0.0000 0.0612  plane waves:    1202
 k-point  8 :   0.0714 0.0000 0.0714  plane waves:    1202
 k-point  9 :   0.0816 0.0000 0.0816  plane waves:    1202
 k-point 10 :   0.0918 0.0000 0.0918  plane waves:    1186
 k-point 11 :   0.1020 0.0000 0.1020  plane waves:    1186
 k-point 12 :   0.1122 0.0000 0.1122  plane waves:    1194
 k-point 13 :   0.1224 0.0000 0.1224  plane waves:    1194
 k-point 14 :   0.1327 0.0000 0.1327  plane waves:    1194
 k-point 15 :   0.1429 0.0000 0.1429  plane waves:    1194
 k-point 16 :   0.1531 0.0000 0.1531  plane waves:    1194
 k-point 17 :   0.1633 0.0000 0.1633  plane waves:    1186
 k-point 18 :   0.1735 0.0000 0.1735  plane waves:    1184
 k-point 19 :   0.1837 0.0000 0.1837  plane waves:    1184
 k-point 20 :   0.1939 0.0000 0.1939  plane waves:    1168
 k-point 21 :   0.2041 0.0000 0.2041  plane waves:    1168
 k-point 22 :   0.2143 0.0000 0.2143  plane waves:    1184
 k-point 23 :   0.2245 0.0000 0.2245  plane waves:    1184
 k-point 24 :   0.2347 0.0000 0.2347  plane waves:    1184
 k-point 25 :   0.2449 0.0000 0.2449  plane waves:    1184
 k-point 26 :   0.2551 0.0000 0.2551  plane waves:    1184
 k-point 27 :   0.2653 0.0000 0.2653  plane waves:    1184
 k-point 28 :   0.2755 0.0000 0.2755  plane waves:    1184
 k-point 29 :   0.2857 0.0000 0.2857  plane waves:    1184
 k-point 30 :   0.2959 0.0000 0.2959  plane waves:    1200
 k-point 31 :   0.3061 0.0000 0.3061  plane waves:    1224
 k-point 32 :   0.3163 0.0000 0.3163  plane waves:    1224
 k-point 33 :   0.3265 0.0000 0.3265  plane waves:    1224
 k-point 34 :   0.3367 0.0000 0.3367  plane waves:    1224
 k-point 35 :   0.3469 0.0000 0.3469  plane waves:    1232
 k-point 36 :   0.3571 0.0000 0.3571  plane waves:    1216
 k-point 37 :   0.3673 0.0000 0.3673  plane waves:    1216
 k-point 38 :   0.3776 0.0000 0.3776  plane waves:    1216
 k-point 39 :   0.3878 0.0000 0.3878  plane waves:    1216
 k-point 40 :   0.3980 0.0000 0.3980  plane waves:    1224
 k-point 41 :   0.4082 0.0000 0.4082  plane waves:    1240
 k-point 42 :   0.4184 0.0000 0.4184  plane waves:    1240
 k-point 43 :   0.4286 0.0000 0.4286  plane waves:    1240
 k-point 44 :   0.4388 0.0000 0.4388  plane waves:    1240
 k-point 45 :   0.4490 0.0000 0.4490  plane waves:    1240
 k-point 46 :   0.4592 0.0000 0.4592  plane waves:    1240
 k-point 47 :   0.4694 0.0000 0.4694  plane waves:    1240
 k-point 48 :   0.4796 0.0000 0.4796  plane waves:    1224
 k-point 49 :   0.4898 0.0000 0.4898  plane waves:    1240
 k-point 50 :   0.5000 0.0000 0.5000  plane waves:    1240
 k-point 51 :   0.5000 0.0000 0.5000  plane waves:    1240
 k-point 52 :   0.5000 0.0051 0.5051  plane waves:    1240
 k-point 53 :   0.5000 0.0102 0.5102  plane waves:    1240
 k-point 54 :   0.5000 0.0153 0.5153  plane waves:    1232
 k-point 55 :   0.5000 0.0204 0.5204  plane waves:    1232
 k-point 56 :   0.5000 0.0255 0.5255  plane waves:    1224
 k-point 57 :   0.5000 0.0306 0.5306  plane waves:    1232
 k-point 58 :   0.5000 0.0357 0.5357  plane waves:    1232
 k-point 59 :   0.5000 0.0408 0.5408  plane waves:    1232
 k-point 60 :   0.5000 0.0459 0.5459  plane waves:    1232
 k-point 61 :   0.5000 0.0510 0.5510  plane waves:    1224
 k-point 62 :   0.5000 0.0561 0.5561  plane waves:    1224
 k-point 63 :   0.5000 0.0612 0.5612  plane waves:    1224
 k-point 64 :   0.5000 0.0663 0.5663  plane waves:    1224
 k-point 65 :   0.5000 0.0714 0.5714  plane waves:    1224
 k-point 66 :   0.5000 0.0765 0.5765  plane waves:    1224
 k-point 67 :   0.5000 0.0816 0.5816  plane waves:    1224
 k-point 68 :   0.5000 0.0867 0.5867  plane waves:    1224
 k-point 69 :   0.5000 0.0918 0.5918  plane waves:    1224
 k-point 70 :   0.5000 0.0969 0.5969  plane waves:    1224
 k-point 71 :   0.5000 0.1020 0.6020  plane waves:    1224
 k-point 72 :   0.5000 0.1071 0.6071  plane waves:    1224
 k-point 73 :   0.5000 0.1122 0.6122  plane waves:    1224
 k-point 74 :   0.5000 0.1173 0.6173  plane waves:    1228
 k-point 75 :   0.5000 0.1224 0.6224  plane waves:    1220
 k-point 76 :   0.5000 0.1276 0.6276  plane waves:    1220
 k-point 77 :   0.5000 0.1327 0.6327  plane waves:    1220
 k-point 78 :   0.5000 0.1378 0.6378  plane waves:    1216
 k-point 79 :   0.5000 0.1429 0.6429  plane waves:    1216
 k-point 80 :   0.5000 0.1480 0.6480  plane waves:    1216
 k-point 81 :   0.5000 0.1531 0.6531  plane waves:    1216
 k-point 82 :   0.5000 0.1582 0.6582  plane waves:    1224
 k-point 83 :   0.5000 0.1633 0.6633  plane waves:    1224
 k-point 84 :   0.5000 0.1684 0.6684  plane waves:    1228
 k-point 85 :   0.5000 0.1735 0.6735  plane waves:    1228
 k-point 86 :   0.5000 0.1786 0.6786  plane waves:    1220
 k-point 87 :   0.5000 0.1837 0.6837  plane waves:    1220
 k-point 88 :   0.5000 0.1888 0.6888  plane waves:    1220
 k-point 89 :   0.5000 0.1939 0.6939  plane waves:    1220
 k-point 90 :   0.5000 0.1990 0.6990  plane waves:    1220
 k-point 91 :   0.5000 0.2041 0.7041  plane waves:    1220
 k-point 92 :   0.5000 0.2092 0.7092  plane waves:    1220
 k-point 93 :   0.5000 0.2143 0.7143  plane waves:    1220
 k-point 94 :   0.5000 0.2194 0.7194  plane waves:    1220
 k-point 95 :   0.5000 0.2245 0.7245  plane waves:    1220
 k-point 96 :   0.5000 0.2296 0.7296  plane waves:    1220
[...]
 -0.000  -0.000   0.000  -0.000   0.000  -0.000   0.000  -0.000  -0.000   0.000  -0.000  -0.000   0.000  -0.000   0.000  -0.000
  0.000   0.000   0.000  -0.000   0.000  -0.000   0.000  -0.000   0.000  -0.000   0.000   0.000   0.000  -0.000   0.000  -0.000
  0.000  -0.000  -0.000   0.000   0.000  -0.000  -0.000   0.000   0.000   0.000   0.000  -0.000  -0.000   0.000   0.000  -0.000
 -0.000  -0.000   0.000  -0.000   0.000  -0.000   0.000  -0.000  -0.000   0.000  -0.000  -0.000   0.000  -0.000   0.000  -0.000
 pseudopotential strength for first ion, spin component:           4
 -4.113   0.000   0.000   0.000  -0.000   0.000   0.000   0.000   0.000  -0.602  -4.347   0.000   0.000   0.000  -0.000   0.000
  0.000   0.000  -4.113   0.000   0.000   0.000   0.000  -0.301  -0.000   0.000   0.000   0.000  -4.347   0.000   0.000   0.000
 -0.000   0.000   0.000   0.000  -4.111   0.000   0.000   0.000   0.000   0.000  -0.000   0.000   0.000   0.000  -4.345   0.000
  0.000   0.000   0.000   0.301   0.000   0.000  -4.113   0.000   0.000   0.000   0.000   0.000   0.000   0.292   0.000   0.000
  0.000   0.602  -0.000   0.000   0.000   0.000   0.000   0.000  -4.111   0.000   0.000   0.584  -0.000   0.000   0.000   0.000
 -4.347   0.000   0.000   0.000  -0.000   0.000   0.000   0.000   0.000  -0.584  -4.563   0.000   0.000   0.000  -0.000   0.000
  0.000   0.000  -4.347   0.000   0.000   0.000   0.000  -0.292  -0.000   0.000   0.000   0.000  -4.563   0.000   0.000   0.000
 -0.000   0.000   0.000   0.000  -4.345   0.000   0.000   0.000   0.000   0.000  -0.000   0.000   0.000   0.000  -4.561   0.000
  0.000   0.000   0.000   0.292   0.000   0.000  -4.347   0.000   0.000   0.000   0.000   0.000   0.000   0.284   0.000   0.000
  0.000   0.584  -0.000   0.000   0.000   0.000   0.000   0.000  -4.345   0.000   0.000   0.567  -0.000   0.000   0.000   0.000
 -0.000   0.000  -0.000   0.000   0.000   0.000  -0.000   0.000   0.000   0.000  -0.000   0.000  -0.000   0.000   0.000   0.000
 -0.000   0.000  -0.000   0.000   0.000   0.000  -0.000   0.000   0.000   0.000  -0.000   0.000  -0.000   0.000   0.000   0.000
  0.000   0.000   0.000   0.000  -0.000   0.000  -0.000   0.000   0.000   0.000   0.000   0.000   0.000   0.000  -0.000   0.000
 -0.000   0.000  -0.000   0.000   0.000   0.000   0.000   0.000  -0.000   0.000  -0.000   0.000  -0.000   0.000   0.000   0.000
 -0.000   0.000  -0.000   0.000   0.000   0.000  -0.000   0.000   0.000   0.000  -0.000   0.000  -0.000   0.000   0.000   0.000
  0.000   0.000   0.000   0.000  -0.000   0.000  -0.000   0.000   0.000   0.000   0.000   0.000   0.000   0.000  -0.000   0.000
 -0.000   0.000  -0.000   0.000   0.000   0.000   0.000   0.000  -0.000   0.000  -0.000   0.000  -0.000   0.000   0.000   0.000
 -0.000   0.000  -0.000   0.000   0.000   0.000  -0.000   0.000   0.000   0.000  -0.000   0.000  -0.000   0.000   0.000   0.000
 total augmentation occupancy for first ion, spin component:           1
  2.000   0.000   0.000   0.000   0.000   0.000   0.000   0.000   0.000   0.000   0.000   0.000   0.000   0.000   0.000   0.000
  0.000   2.000   0.000   0.000   0.000   0.000   0.000   0.000   0.000   0.000   0.000   0.000   0.000   0.000   0.000   0.000
  0.000   0.000   2.000   0.000   0.000   0.000   0.000   0.000   0.000   0.000   0.000   0.000   0.000   0.000   0.000   0.000
  0.000   0.000   0.000   2.000   0.000   0.000   0.000   0.000   0.000   0.000   0.000   0.000   0.000   0.000   0.000   0.000
  0.000   0.000   0.000   0.000   2.000   0.000   0.000   0.000   0.000   0.000   0.000   0.000   0.000   0.000   0.000   0.000
  0.000   0.000   0.000   0.000   0.000   0.000   0.000   0.000   0.000   0.000   0.000   0.000   0.000   0.000   0.000   0.000
  0.000   0.000   0.000   0.000   0.000   0.000   0.000   0.000   0.000   0.000   0.000   0.000   0.000   0.000   0.000   0.000
  0.000   0.000   0.000   0.000   0.000   0.000   0.000   0.000   0.000   0.000   0.000   0.000   0.000   0.000   0.000   0.000
  0.000   0.000   0.000   0.000   0.000   0.000   0.000   0.000   0.000   0.000   0.000   0.000   0.000   0.000   0.000   0.000
  0.000   0.000   0.000   0.000   0.000   0.000   0.000   0.000   0.000   0.000   0.000   0.000   0.000   0.000   0.000   0.000
  0.000   0.000   0.000   0.000   0.000   0.000   0.000   0.000   0.000   0.000   1.000   0.000   0.000   0.000   0.000   0.000
  0.000   0.000   0.000   0.000   0.000   0.000   0.000   0.000   0.000   0.000   0.000   0.000   0.000   0.000   0.000   0.000
  0.000   0.000   0.000   0.000   0.000   0.000   0.000   0.000   0.000   0.000   0.000   0.000   0.000   0.000   0.000   0.000
  0.000   0.000   0.000   0.000   0.000   0.000   0.000   0.000   0.000   0.000   0.000   0.000   0.000   0.000   0.000   0.000
  0.000   0.000   0.000   0.000   0.000   0.000   0.000   0.000   0.000   0.000   0.000   0.000   0.000   0.000   0.000   0.000
  0.000   0.000   0.000   0.000   0.000   0.000   0.000   0.000   0.000   0.000   0.000   0.000   0.000   0.000   0.000   0.000
  0.000   0.000   0.000   0.000   0.000   0.000   0.000   0.000   0.000   0.000   0.000   0.000   0.000   0.000   0.000   0.000
  0.000   0.000   0.000   0.000   0.000   0.000   0.000   0.000   0.000   0.000   0.000   0.000   0.000   0.000   0.000   0.000
 total augmentation occupancy for first ion, spin component:           2
  0.000   0.000   0.000   0.000   0.000   0.000   0.000   0.000   0.000   0.000   0.000   0.000   0.000   0.000   0.000   0.000
  0.000   0.000   0.000   0.000   0.000   0.000   0.000   0.000   0.000   0.000   0.000   0.000   0.000   0.000   0.000   0.000
  0.000   0.000   0.000   0.000   0.000   0.000   0.000   0.000   0.000   0.000   0.000   0.000   0.000   0.000   0.000   0.000
  0.000   0.000   0.000   0.000   0.000   0.000   0.000   0.000   0.000   0.000   0.000   0.000   0.000   0.000   0.000   0.000
  0.000   0.000   0.000   0.000   0.000   0.000   0.000   0.000   0.000   0.000   0.000   0.000   0.000   0.000   0.000   0.000
  0.000   0.000   0.000   0.000   0.000   0.000   0.000   0.000   0.000   0.000   0.000   0.000   0.000   0.000   0.000   0.000
  0.000   0.000   0.000   0.000   0.000   0.000   0.000   0.000   0.000   0.000   0.000   0.000   0.000   0.000   0.000   0.000
  0.000   0.000   0.000   0.000   0.000   0.000   0.000   0.000   0.000   0.000   0.000   0.000   0.000   0.000   0.000   0.000
  0.000   0.000   0.000   0.000   0.000   0.000   0.000   0.000   0.000   0.000   0.000   0.000   0.000   0.000   0.000   0.000
  0.000   0.000   0.000   0.000   0.000   0.000   0.000   0.000   0.000   0.000   0.000   0.000   0.000   0.000   0.000   0.000
  0.000   0.000   0.000   0.000   0.000   0.000   0.000   0.000   0.000   0.000   0.000   0.000   0.000   0.000   0.000   0.000
  0.000   0.000   0.000   0.000   0.000   0.000   0.000   0.000   0.000   0.000   0.000   0.000   0.000   0.000   0.000   0.000
  0.000   0.000   0.000   0.000   0.000   0.000   0.000   0.000   0.000   0.000   0.000   0.000   0.000   0.000   0.000   0.000
  0.000   0.000   0.000   0.000   0.000   0.000   0.000   0.000   0.000   0.000   0.000   0.000   0.000   0.000   0.000   0.000
  0.000   0.000   0.000   0.000   0.000   0.000   0.000   0.000   0.000   0.000   0.000   0.000   0.000   0.000   0.000   0.000
  0.000   0.000   0.000   0.000   0.000   0.000   0.000   0.000   0.000   0.000   0.000   0.000   0.000   0.000   0.000   0.000
  0.000   0.000   0.000   0.000   0.000   0.000   0.000   0.000   0.000   0.000   0.000   0.000   0.000   0.000   0.000   0.000
  0.000   0.000   0.000   0.000   0.000   0.000   0.000   0.000   0.000   0.000   0.000   0.000   0.000   0.000   0.000   0.000
 total augmentation occupancy for first ion, spin component:           3
  0.000   0.000   0.000   0.000   0.000   0.000   0.000   0.000   0.000   0.000   0.000   0.000   0.000   0.000   0.000   0.000
  0.000   0.000   0.000   0.000   0.000   0.000   0.000   0.000   0.000   0.000   0.000   0.000   0.000   0.000   0.000   0.000
  0.000   0.000   0.000   0.000   0.000   0.000   0.000   0.000   0.000   0.000   0.000   0.000   0.000   0.000   0.000   0.000
  0.000   0.000   0.000   0.000   0.000   0.000   0.000   0.000   0.000   0.000   0.000   0.000   0.000   0.000   0.000   0.000
  0.000   0.000   0.000   0.000   0.000   0.000   0.000   0.000   0.000   0.000   0.000   0.000   0.000   0.000   0.000   0.000
  0.000   0.000   0.000   0.000   0.000   0.000   0.000   0.000   0.000   0.000   0.000   0.000   0.000   0.000   0.000   0.000
  0.000   0.000   0.000   0.000   0.000   0.000   0.000   0.000   0.000   0.000   0.000   0.000   0.000   0.000   0.000   0.000
  0.000   0.000   0.000   0.000   0.000   0.000   0.000   0.000   0.000   0.000   0.000   0.000   0.000   0.000   0.000   0.000
  0.000   0.000   0.000   0.000   0.000   0.000   0.000   0.000   0.000   0.000   0.000   0.000   0.000   0.000   0.000   0.000
  0.000   0.000   0.000   0.000   0.000   0.000   0.000   0.000   0.000   0.000   0.000   0.000   0.000   0.000   0.000   0.000
  0.000   0.000   0.000   0.000   0.000   0.000   0.000   0.000   0.000   0.000   0.000   0.000   0.000   0.000   0.000   0.000
  0.000   0.000   0.000   0.000   0.000   0.000   0.000   0.000   0.000   0.000   0.000   0.000   0.000   0.000   0.000   0.000
  0.000   0.000   0.000   0.000   0.000   0.000   0.000   0.000   0.000   0.000   0.000   0.000   0.000   0.000   0.000   0.000
  0.000   0.000   0.000   0.000   0.000   0.000   0.000   0.000   0.000   0.000   0.000   0.000   0.000   0.000   0.000   0.000
  0.000   0.000   0.000   0.000   0.000   0.000   0.000   0.000   0.000   0.000   0.000   0.000   0.000   0.000   0.000   0.000
  0.000   0.000   0.000   0.000   0.000   0.000   0.000   0.000   0.000   0.000   0.000   0.000   0.000   0.000   0.000   0.000
  0.000   0.000   0.000   0.000   0.000   0.000   0.000   0.000   0.000   0.000   0.000   0.000   0.000   0.000   0.000   0.000
  0.000   0.000   0.000   0.000   0.000   0.000   0.000   0.000   0.000   0.000   0.000   0.000   0.000   0.000   0.000   0.000
 total augmentation occupancy for first ion, spin component:           4
  0.000   0.000   0.000   0.000   0.000   0.000   0.000   0.000   0.000   0.000   0.000   0.000   0.000   0.000   0.000   0.000
  0.000   0.000   0.000   0.000   0.000   0.000   0.000   0.000   0.000   0.000   0.000   0.000   0.000   0.000   0.000   0.000
  0.000   0.000   0.000   0.000   0.000   0.000   0.000   0.000   0.000   0.000   0.000   0.000   0.000   0.000   0.000   0.000
  0.000   0.000   0.000   0.000   0.000   0.000   0.000   0.000   0.000   0.000   0.000   0.000   0.000   0.000   0.000   0.000
  0.000   0.000   0.000   0.000   0.000   0.000   0.000   0.000   0.000   0.000   0.000   0.000   0.000   0.000   0.000   0.000
  0.000   0.000   0.000   0.000   0.000   0.000   0.000   0.000   0.000   0.000   0.000   0.000   0.000   0.000   0.000   0.000
  0.000   0.000   0.000   0.000   0.000   0.000   0.000   0.000   0.000   0.000   0.000   0.000   0.000   0.000   0.000   0.000
  0.000   0.000   0.000   0.000   0.000   0.000   0.000   0.000   0.000   0.000   0.000   0.000   0.000   0.000   0.000   0.000
  0.000   0.000   0.000   0.000   0.000   0.000   0.000   0.000   0.000   0.000   0.000   0.000   0.000   0.000   0.000   0.000
  0.000   0.000   0.000   0.000   0.000   0.000   0.000   0.000   0.000   0.000   0.000   0.000   0.000   0.000   0.000   0.000
  0.000   0.000   0.000   0.000   0.000   0.000   0.000   0.000   0.000   0.000   0.000   0.000   0.000   0.000   0.000   0.000
  0.000   0.000   0.000   0.000   0.000   0.000   0.000   0.000   0.000   0.000   0.000   0.000   0.000   0.000   0.000   0.000
  0.000   0.000   0.000   0.000   0.000   0.000   0.000   0.000   0.000   0.000   0.000   0.000   0.000   0.000   0.000   0.000
  0.000   0.000   0.000   0.000   0.000   0.000   0.000   0.000   0.000   0.000   0.000   0.000   0.000   0.000   0.000   0.000
  0.000   0.000   0.000   0.000   0.000   0.000   0.000   0.000   0.000   0.000   0.000   0.000   0.000   0.000   0.000   0.000
  0.000   0.000   0.000   0.000   0.000   0.000   0.000   0.000   0.000   0.000   0.000   0.000   0.000   0.000   0.000   0.000
  0.000   0.000   0.000   0.000   0.000   0.000   0.000   0.000   0.000   0.000   0.000   0.000   0.000   0.000   0.000   0.000
  0.000   0.000   0.000   0.000   0.000   0.000   0.000   0.000   0.000   0.000   0.000   0.000   0.000   0.000   0.000   0.000


------------------------ aborting loop because EDIFF is reached ----------------------------------------


 


 total charge     
 
# of ion       s       p       d       tot
------------------------------------------
    1        0.364   0.435   8.769   9.567
 


 magnetization (x)
 
# of ion       s       p       d       tot
------------------------------------------
    1       -0.000  -0.000   0.000  -0.000
 


 magnetization (y)
 
# of ion       s       p       d       tot
------------------------------------------
    1       -0.000   0.000  -0.000   0.000
 


 magnetization (z)
 
# of ion       s       p       d       tot
------------------------------------------
    1        0.000   0.000  -0.000   0.000
 
    CHARGE:  cpu time    0.1536: real time    0.1551
    FORLOC:  cpu time    0.0002: real time    0.0002
    FORNL :  cpu time    0.5798: real time    0.5851
    STRESS:  cpu time    1.9137: real time    1.9161
    FORCOR:  cpu time    0.0081: real time    0.0084
    FORHAR:  cpu time    0.0013: real time    0.0014
    OFIELD:  cpu time    0.0000: real time    0.0000

  FORCE on cell =-STRESS in cart. coord.  units (eV):
  Direction    XX          YY          ZZ          XY          YZ          ZX
  --------------------------------------------------------------------------------------
  Alpha Z    64.19470    64.19470    64.19470
  Ewald    -319.18778  -319.18778  -319.18778     0.00000    -0.00000    -0.00000
  Hartree    40.38606    40.38606    40.38606     0.00000     0.00000     0.00000
  E(xc)     -49.41308   -49.41308   -49.41308     0.00000     0.00000     0.00000
  Local      45.06067    45.06067    45.06067    -0.00001    -0.00001    -0.00001
  n-local     1.84596    -6.05036    -5.12694    -2.27486    -1.70587    -2.59636
  augment    69.11494    69.11494    69.11494     0.00001     0.00001     0.00001
  Kinetic   151.89644   157.20591   153.09612     1.24094     1.52828     0.76796
  Fock        0.00000     0.00000     0.00000     0.00000     0.00000     0.00000
  -------------------------------------------------------------------------------------
  Total       1.11123     1.11123     1.11123     0.00000    -0.00000     0.00000
  in kB      98.12110    98.12110    98.12110     0.00000    -0.00000     0.00000
  external pressure =       98.12 kB  Pullay stress =        0.00 kB


 VOLUME and BASIS-vectors are now :
 -----------------------------------------------------------------------------
  energy-cutoff  :      600.00
  volume of cell :       18.14
      direct lattice vectors                 reciprocal lattice vectors
     0.000000000  2.085644245  2.085644245    -0.239734078  0.239734078  0.239734078
     2.085644245  0.000000000  2.085644245     0.239734078 -0.239734078  0.239734078
     2.085644245  2.085644245  0.000000000     0.239734078  0.239734078 -0.239734078

  length of vectors
     2.949546378  2.949546378  2.949546378     0.415231603  0.415231603  0.415231603


 FORCES acting on ions
    electron-ion (+dipol)            ewald-force                    non-local-force                 convergence-correction
 -----------------------------------------------------------------------------------------------
   -.138E-13 -.154E-13 -.185E-13   -.259E-15 0.167E-14 -.129E-14   0.662E-23 -.993E-23 -.331E-23   -.401E-07 0.486E-09 0.212E-07
 -----------------------------------------------------------------------------------------------
   -.138E-13 -.154E-13 -.185E-13   -.259E-15 0.167E-14 -.129E-14   0.662E-23 -.993E-23 -.331E-23   -.401E-07 0.486E-09 0.212E-07
 
 
 POSITION                                       TOTAL-FORCE (eV/Angst)
 -----------------------------------------------------------------------------------
      0.00000      0.00000      0.00000         0.000000      0.000000      0.000000
 -----------------------------------------------------------------------------------
    total drift:                               -0.000000      0.000000      0.000000


--------------------------------------------------------------------------------------------------------



  FREE ENERGIE OF THE ION-ELECTRON SYSTEM (eV)
  ---------------------------------------------------
  free  energy   TOTEN  =        -1.79065328 eV

  energy  without entropy=       -1.79065328  energy(sigma->0) =       -1.79065328
 


--------------------------------------------------------------------------------------------------------


    POTLOK:  cpu time    0.4114: real time    0.4117


--------------------------------------------------------------------------------------------------------


     LOOP+:  cpu time   13.5142: real time   13.6442
    4ORBIT:  cpu time    0.0000: real time    0.0000

 Spin-Orbit-Coupling matrix elements

 Ion:    1  E_soc:     -0.6486271
 l=   1
     0.0000000    -0.0368151    -0.0368151
    -0.0368151     0.0000000    -0.0368151
    -0.0368151    -0.0368151     0.0000000
 l=   2
     0.0000000    -0.0168441     0.0000000    -0.0168441    -0.0544453
    -0.0168441     0.0000000    -0.0408340    -0.0168441    -0.0136113
     0.0000000    -0.0408340     0.0000000    -0.0408340     0.0000000
    -0.0168441    -0.0168441    -0.0408340     0.0000000    -0.0136113
    -0.0544453    -0.0136113     0.0000000    -0.0136113     0.0000000
 l=   3
     0.0000000     0.0000000     0.0000000     0.0000000     0.0000000     0.0000000     0.0000000
     0.0000000     0.0000000     0.0000000     0.0000000     0.0000000     0.0000000     0.0000000
     0.0000000     0.0000000     0.0000000     0.0000000     0.0000000     0.0000000     0.0000000
     0.0000000     0.0000000     0.0000000     0.0000000     0.0000000     0.0000000     0.0000000
     0.0000000     0.0000000     0.0000000     0.0000000     0.0000000     0.0000000     0.0000000
     0.0000000     0.0000000     0.0000000     0.0000000     0.0000000     0.0000000     0.0000000
     0.0000000     0.0000000     0.0000000     0.0000000     0.0000000     0.0000000     0.0000000
 


 total charge     
 
# of ion       s       p       d       tot
------------------------------------------
    1        0.364   0.435   8.769   9.567
 


 magnetization (x)
 
# of ion       s       p       d       tot
------------------------------------------
    1       -0.000  -0.000   0.000  -0.000
 


 magnetization (y)
 
# of ion       s       p       d       tot
------------------------------------------
    1       -0.000   0.000  -0.000   0.000
 


 magnetization (z)
 
# of ion       s       p       d       tot
------------------------------------------
    1        0.000   0.000  -0.000   0.000
 

 total amount of memory used by VASP MPI-rank0    43212. kBytes
=======================================================================

   base      :      30000. kBytes
   nonl-proj :       6337. kBytes
   fftplans  :        700. kBytes
   grid      :        737. kBytes
   one-center:         62. kBytes
   wavefun   :       5376. kBytes
 
  
  
 General timing and accounting informations for this job:
 ========================================================
  
                  Total CPU time used (sec):       22.184
                            User time (sec):       18.049
                          System time (sec):        4.135
                         Elapsed time (sec):       24.951
  
                   Maximum memory used (kb):      255772.
                   Average memory used (kb):           0.
  
                          Minor page faults:        93273
                          Major page faults:            0
                 Voluntary context switches:         4310
